
                                 *****************
                                 * O   R   C   A *
                                 *****************

           --- An Ab Initio, DFT and Semiempirical electronic structure package ---

                  #######################################################
                  #                        -***-                        #
                  #          Department of theory and spectroscopy      #
                  #               Directorship: Frank Neese             #
                  #        Max Planck Institute fuer Kohlenforschung    #
                  #                Kaiser Wilhelm Platz 1               #
                  #                 D-45470 Muelheim/Ruhr               #
                  #                      Germany                        #
                  #                                                     #
                  #                  All rights reserved                #
                  #                        -***-                        #
                  #######################################################


                         Program Version 4.2.1 -  RELEASE  -


 With contributions from (in alphabetic order):
   Daniel Aravena         : Magnetic Suceptibility
   Michael Atanasov       : Ab Initio Ligand Field Theory (pilot matlab implementation)
   Alexander A. Auer      : GIAO ZORA, VPT2
   Ute Becker             : Parallelization
   Giovanni Bistoni       : ED, misc. LED, open-shell LED, HFLD
   Martin Brehm           : Molecular dynamics
   Dmytro Bykov           : SCF Hessian
   Vijay G. Chilkuri      : MRCI spin determinant printing, contributions to CSF-ICE
   Dipayan Datta          : RHF DLPNO-CCSD density
   Achintya Kumar Dutta   : EOM-CC, STEOM-CC
   Dmitry Ganyushin       : Spin-Orbit,Spin-Spin,Magnetic field MRCI
   Miquel Garcia          : C-PCM Hessian, Gaussian charge scheme
   Yang Guo               : DLPNO-NEVPT2, CIM, IAO-localization
   Andreas Hansen         : Spin unrestricted coupled pair/coupled cluster methods
   Benjamin Helmich-Paris : CASSCF linear response (MC-RPA)
   Lee Huntington         : MR-EOM, pCC
   Robert Izsak           : Overlap fitted RIJCOSX, COSX-SCS-MP3, EOM
   Christian Kollmar      : KDIIS, OOCD, Brueckner-CCSD(T), CCSD density
   Simone Kossmann        : Meta GGA functionals, TD-DFT gradient, OOMP2, MP2 Hessian
   Martin Krupicka        : AUTO-CI
   Lucas Lang             : DCDCAS
   Dagmar Lenk            : GEPOL surface, SMD
   Dimitrios Liakos       : Extrapolation schemes; Compound Job, initial MDCI parallelization
   Dimitrios Manganas     : Further ROCIS development; embedding schemes
   Dimitrios Pantazis     : SARC Basis sets
   Taras Petrenko         : DFT Hessian,TD-DFT gradient, ASA, ECA, R-Raman, ABS, FL, XAS/XES, NRVS
   Peter Pinski           : DLPNO-MP2, DLPNO-MP2 Gradient
   Christoph Reimann      : Effective Core Potentials
   Marius Retegan         : Local ZFS, SOC
   Christoph Riplinger    : Optimizer, TS searches, QM/MM, DLPNO-CCSD(T), (RO)-DLPNO pert. Triples
   Tobias Risthaus        : Range-separated hybrids, TD-DFT gradient, RPA, STAB
   Michael Roemelt        : Original ROCIS implementation
   Masaaki Saitow         : Open-shell DLPNO-CCSD energy and density
   Barbara Sandhoefer     : DKH picture change effects
   Avijit Sen             : IP-ROCIS
   Kantharuban Sivalingam : CASSCF convergence, NEVPT2, FIC-MRCI
   Bernardo de Souza      : ESD, SOC TD-DFT
   Georgi Stoychev        : AutoAux, RI-MP2 NMR
   Willem Van den Heuvel  : Paramagnetic NMR
   Boris Wezisla          : Elementary symmetry handling
   Frank Wennmohs         : Technical directorship


 We gratefully acknowledge several colleagues who have allowed us to
 interface, adapt or use parts of their codes:
   Stefan Grimme, W. Hujo, H. Kruse,             : VdW corrections, initial TS optimization,
                  C. Bannwarth                     DFT functionals, gCP, sTDA/sTD-DF
   Ed Valeev, F. Pavosevic, A. Kumar             : LibInt (2-el integral package), F12 methods
   Garnet Chan, S. Sharma, J. Yang, R. Olivares  : DMRG
   Ulf Ekstrom                                   : XCFun DFT Library
   Mihaly Kallay                                 : mrcc  (arbitrary order and MRCC methods)
   Andreas Klamt, Michael Diedenhofen            : otool_cosmo (COSMO solvation model)
   Jiri Pittner, Ondrej Demel                    : Mk-CCSD
   Frank Weinhold                                : gennbo (NPA and NBO analysis)
   Christopher J. Cramer and Donald G. Truhlar   : smd solvation model
   Lars Goerigk                                  : TD-DFT with DH, B97 family of functionals
   V. Asgeirsson, H. Jonsson                     : NEB implementation
   FAccTs GmbH                                   : IRC, NEB, NEB-TS, Multilevel, MM, QM/MM, CI optimization
   S Lehtola, MJT Oliveira, MAL Marques          : LibXC Library


 Your calculation uses the libint2 library for the computation of 2-el integrals
 For citations please refer to: http://libint.valeyev.net

 Your ORCA version has been built with support for libXC version: 4.2.3
 For citations please refer to: https://tddft.org/programs/libxc/

 This ORCA versions uses:
   CBLAS   interface :  Fast vector & matrix operations
   LAPACKE interface :  Fast linear algebra routines
   SCALAPACK package :  Parallel linear algebra routines


----- Orbital basis set information -----
Your calculation utilizes the basis: aug-cc-pVTZ 
    H, B-Ne : Obtained from the ccRepo (grant-hill.group.shef.ac.uk/ccrepo) Feb. 2017
              R. A. Kendall, T. H. Dunning, Jr., R. J. Harrison, J. Chem. Phys. 96, 6796 (1992)
         He : Obtained from the ccRepo (grant-hill.group.shef.ac.uk/ccrepo) Feb. 2017
              D. E. Woon, T. H. Dunning, Jr., J. Chem. Phys. 100, 2975 (1994)
  Li-Be, Na : Obtained from the ccRepo (grant-hill.group.shef.ac.uk/ccrepo) Feb. 2017
              B. P. Prascher, D. E. Woon, K. A. Peterson, T. H. Dunning, Jr., A. K. Wilson, Theor. Chem. Acc. 128, 69 (2011)
         Mg : Obtained from the Peterson Research Group Website (tyr0.chem.wsu.edu/~kipeters) Feb. 2017
              B. P. Prascher, D. E. Woon, K. A. Peterson, T. H. Dunning, Jr., A. K. Wilson, Theor. Chem. Acc. 128, 69 (2011)
      Al-Ar : Obtained from the ccRepo (grant-hill.group.shef.ac.uk/ccrepo) Feb. 2017
              D. E. Woon, T. H. Dunning, Jr., J. Chem. Phys. 98, 1358 (1993)
      Sc-Zn : Obtained from the ccRepo (grant-hill.group.shef.ac.uk/ccrepo) Feb. 2017
              N. B. Balabanov, K. A. Peterson, J. Chem. Phys. 123, 064107 (2005)
              N. B. Balabanov, K. A. Peterson, J. Chem. Phys. 125, 074110 (2006)
      Ga-Kr : Obtained from the ccRepo (grant-hill.group.shef.ac.uk/ccrepo) Feb. 2017
              A. K. Wilson, D. E. Woon, K. A. Peterson, T. H. Dunning, Jr., J. Chem. Phys. 110, 7667 (1999)
     Ag, Au : Obtained from the Peterson Research Group Website (tyr0.chem.wsu.edu/~kipeters) Feb. 2017
              K. A. Peterson, C. Puzzarini, Theor. Chem. Acc. 114, 283 (2005)

----- AuxC basis set information -----
Your calculation utilizes the auxiliary basis: aug-cc-pVTZ/C 
  H-He, B-F, Al-Ar, Ga-Kr : Obtained from the EMSL Basis Set Exchange (bse.pnl.gov) Feb. 2017
                            F. Weigend, A. Kohn, C. Hattig, J. Chem. Phys. 116, 3175 (2002)
                   Be, Mg : Obtained from the TURBOMOLE 7.0 basis set library
                            C. Haettig, Phys. Chem. Chem. Phys. 7, 59 (2005)
                       Ne : Obtained from the EMSL Basis Set Exchange (bse.pnl.gov) Feb. 2017
                            C. Haettig, Phys. Chem. Chem. Phys. 7, 59 (2005)
                            F. Weigend, A. Kohn, C. Hattig, J. Chem. Phys. 116, 3175 (2002)
                    Sc-Zn : Obtained from the EMSL Basis Set Exchange (bse.pnl.gov) Feb. 2017
                            J. G. Hill, J. A. Platts, J. Chem. Phys. 128, 044104 (2008)

================================================================================
                                        WARNINGS
                       Please study these warnings very carefully!
================================================================================


WARNING: MDCI localization with Augmented Hessian Foster-Boys
  ===> : Switching off randomization!

WARNING: Post HF methods need fully converged wavefunctions
  ===> : Setting SCFConvForced true
         You can overwrite this default with %scf ConvForced false 


INFO   : the flag for use of LIBINT has been found!

----- Orbital basis set information -----
Your calculation utilizes the basis: aug-cc-pVTZ 
    H, B-Ne : Obtained from the ccRepo (grant-hill.group.shef.ac.uk/ccrepo) Feb. 2017
              R. A. Kendall, T. H. Dunning, Jr., R. J. Harrison, J. Chem. Phys. 96, 6796 (1992)
         He : Obtained from the ccRepo (grant-hill.group.shef.ac.uk/ccrepo) Feb. 2017
              D. E. Woon, T. H. Dunning, Jr., J. Chem. Phys. 100, 2975 (1994)
  Li-Be, Na : Obtained from the ccRepo (grant-hill.group.shef.ac.uk/ccrepo) Feb. 2017
              B. P. Prascher, D. E. Woon, K. A. Peterson, T. H. Dunning, Jr., A. K. Wilson, Theor. Chem. Acc. 128, 69 (2011)
         Mg : Obtained from the Peterson Research Group Website (tyr0.chem.wsu.edu/~kipeters) Feb. 2017
              B. P. Prascher, D. E. Woon, K. A. Peterson, T. H. Dunning, Jr., A. K. Wilson, Theor. Chem. Acc. 128, 69 (2011)
      Al-Ar : Obtained from the ccRepo (grant-hill.group.shef.ac.uk/ccrepo) Feb. 2017
              D. E. Woon, T. H. Dunning, Jr., J. Chem. Phys. 98, 1358 (1993)
      Sc-Zn : Obtained from the ccRepo (grant-hill.group.shef.ac.uk/ccrepo) Feb. 2017
              N. B. Balabanov, K. A. Peterson, J. Chem. Phys. 123, 064107 (2005)
              N. B. Balabanov, K. A. Peterson, J. Chem. Phys. 125, 074110 (2006)
      Ga-Kr : Obtained from the ccRepo (grant-hill.group.shef.ac.uk/ccrepo) Feb. 2017
              A. K. Wilson, D. E. Woon, K. A. Peterson, T. H. Dunning, Jr., J. Chem. Phys. 110, 7667 (1999)
     Ag, Au : Obtained from the Peterson Research Group Website (tyr0.chem.wsu.edu/~kipeters) Feb. 2017
              K. A. Peterson, C. Puzzarini, Theor. Chem. Acc. 114, 283 (2005)

----- AuxC basis set information -----
Your calculation utilizes the auxiliary basis: aug-cc-pVTZ/C 
  H-He, B-F, Al-Ar, Ga-Kr : Obtained from the EMSL Basis Set Exchange (bse.pnl.gov) Feb. 2017
                            F. Weigend, A. Kohn, C. Hattig, J. Chem. Phys. 116, 3175 (2002)
                   Be, Mg : Obtained from the TURBOMOLE 7.0 basis set library
                            C. Haettig, Phys. Chem. Chem. Phys. 7, 59 (2005)
                       Ne : Obtained from the EMSL Basis Set Exchange (bse.pnl.gov) Feb. 2017
                            C. Haettig, Phys. Chem. Chem. Phys. 7, 59 (2005)
                            F. Weigend, A. Kohn, C. Hattig, J. Chem. Phys. 116, 3175 (2002)
                    Sc-Zn : Obtained from the EMSL Basis Set Exchange (bse.pnl.gov) Feb. 2017
                            J. G. Hill, J. A. Platts, J. Chem. Phys. 128, 044104 (2008)

================================================================================
                                        WARNINGS
                       Please study these warnings very carefully!
================================================================================


WARNING: MOInp is set but Guess=PModel. MOInp will be ignored!
         To read the initial guess from a file you must also specify
         'MORead' in the simple input or 'Guess MORead' in the %scf block


WARNING: MDCI localization with Augmented Hessian Foster-Boys
  ===> : Switching off randomization!

INFO   : the flag for use of LIBINT has been found!

----- Orbital basis set information -----
Your calculation utilizes the basis: aug-cc-pVTZ 
    H, B-Ne : Obtained from the ccRepo (grant-hill.group.shef.ac.uk/ccrepo) Feb. 2017
              R. A. Kendall, T. H. Dunning, Jr., R. J. Harrison, J. Chem. Phys. 96, 6796 (1992)
         He : Obtained from the ccRepo (grant-hill.group.shef.ac.uk/ccrepo) Feb. 2017
              D. E. Woon, T. H. Dunning, Jr., J. Chem. Phys. 100, 2975 (1994)
  Li-Be, Na : Obtained from the ccRepo (grant-hill.group.shef.ac.uk/ccrepo) Feb. 2017
              B. P. Prascher, D. E. Woon, K. A. Peterson, T. H. Dunning, Jr., A. K. Wilson, Theor. Chem. Acc. 128, 69 (2011)
         Mg : Obtained from the Peterson Research Group Website (tyr0.chem.wsu.edu/~kipeters) Feb. 2017
              B. P. Prascher, D. E. Woon, K. A. Peterson, T. H. Dunning, Jr., A. K. Wilson, Theor. Chem. Acc. 128, 69 (2011)
      Al-Ar : Obtained from the ccRepo (grant-hill.group.shef.ac.uk/ccrepo) Feb. 2017
              D. E. Woon, T. H. Dunning, Jr., J. Chem. Phys. 98, 1358 (1993)
      Sc-Zn : Obtained from the ccRepo (grant-hill.group.shef.ac.uk/ccrepo) Feb. 2017
              N. B. Balabanov, K. A. Peterson, J. Chem. Phys. 123, 064107 (2005)
              N. B. Balabanov, K. A. Peterson, J. Chem. Phys. 125, 074110 (2006)
      Ga-Kr : Obtained from the ccRepo (grant-hill.group.shef.ac.uk/ccrepo) Feb. 2017
              A. K. Wilson, D. E. Woon, K. A. Peterson, T. H. Dunning, Jr., J. Chem. Phys. 110, 7667 (1999)
     Ag, Au : Obtained from the Peterson Research Group Website (tyr0.chem.wsu.edu/~kipeters) Feb. 2017
              K. A. Peterson, C. Puzzarini, Theor. Chem. Acc. 114, 283 (2005)

----- AuxC basis set information -----
Your calculation utilizes the auxiliary basis: aug-cc-pVTZ/C 
  H-He, B-F, Al-Ar, Ga-Kr : Obtained from the EMSL Basis Set Exchange (bse.pnl.gov) Feb. 2017
                            F. Weigend, A. Kohn, C. Hattig, J. Chem. Phys. 116, 3175 (2002)
                   Be, Mg : Obtained from the TURBOMOLE 7.0 basis set library
                            C. Haettig, Phys. Chem. Chem. Phys. 7, 59 (2005)
                       Ne : Obtained from the EMSL Basis Set Exchange (bse.pnl.gov) Feb. 2017
                            C. Haettig, Phys. Chem. Chem. Phys. 7, 59 (2005)
                            F. Weigend, A. Kohn, C. Hattig, J. Chem. Phys. 116, 3175 (2002)
                    Sc-Zn : Obtained from the EMSL Basis Set Exchange (bse.pnl.gov) Feb. 2017
                            J. G. Hill, J. A. Platts, J. Chem. Phys. 128, 044104 (2008)

================================================================================
                                        WARNINGS
                       Please study these warnings very carefully!
================================================================================


WARNING: MOInp is set but Guess=PModel. MOInp will be ignored!
         To read the initial guess from a file you must also specify
         'MORead' in the simple input or 'Guess MORead' in the %scf block


WARNING: MDCI localization with Augmented Hessian Foster-Boys
  ===> : Switching off randomization!

INFO   : the flag for use of LIBINT has been found!

----- Orbital basis set information -----
Your calculation utilizes the basis: aug-cc-pVTZ 
    H, B-Ne : Obtained from the ccRepo (grant-hill.group.shef.ac.uk/ccrepo) Feb. 2017
              R. A. Kendall, T. H. Dunning, Jr., R. J. Harrison, J. Chem. Phys. 96, 6796 (1992)
         He : Obtained from the ccRepo (grant-hill.group.shef.ac.uk/ccrepo) Feb. 2017
              D. E. Woon, T. H. Dunning, Jr., J. Chem. Phys. 100, 2975 (1994)
  Li-Be, Na : Obtained from the ccRepo (grant-hill.group.shef.ac.uk/ccrepo) Feb. 2017
              B. P. Prascher, D. E. Woon, K. A. Peterson, T. H. Dunning, Jr., A. K. Wilson, Theor. Chem. Acc. 128, 69 (2011)
         Mg : Obtained from the Peterson Research Group Website (tyr0.chem.wsu.edu/~kipeters) Feb. 2017
              B. P. Prascher, D. E. Woon, K. A. Peterson, T. H. Dunning, Jr., A. K. Wilson, Theor. Chem. Acc. 128, 69 (2011)
      Al-Ar : Obtained from the ccRepo (grant-hill.group.shef.ac.uk/ccrepo) Feb. 2017
              D. E. Woon, T. H. Dunning, Jr., J. Chem. Phys. 98, 1358 (1993)
      Sc-Zn : Obtained from the ccRepo (grant-hill.group.shef.ac.uk/ccrepo) Feb. 2017
              N. B. Balabanov, K. A. Peterson, J. Chem. Phys. 123, 064107 (2005)
              N. B. Balabanov, K. A. Peterson, J. Chem. Phys. 125, 074110 (2006)
      Ga-Kr : Obtained from the ccRepo (grant-hill.group.shef.ac.uk/ccrepo) Feb. 2017
              A. K. Wilson, D. E. Woon, K. A. Peterson, T. H. Dunning, Jr., J. Chem. Phys. 110, 7667 (1999)
     Ag, Au : Obtained from the Peterson Research Group Website (tyr0.chem.wsu.edu/~kipeters) Feb. 2017
              K. A. Peterson, C. Puzzarini, Theor. Chem. Acc. 114, 283 (2005)

----- AuxC basis set information -----
Your calculation utilizes the auxiliary basis: aug-cc-pVTZ/C 
  H-He, B-F, Al-Ar, Ga-Kr : Obtained from the EMSL Basis Set Exchange (bse.pnl.gov) Feb. 2017
                            F. Weigend, A. Kohn, C. Hattig, J. Chem. Phys. 116, 3175 (2002)
                   Be, Mg : Obtained from the TURBOMOLE 7.0 basis set library
                            C. Haettig, Phys. Chem. Chem. Phys. 7, 59 (2005)
                       Ne : Obtained from the EMSL Basis Set Exchange (bse.pnl.gov) Feb. 2017
                            C. Haettig, Phys. Chem. Chem. Phys. 7, 59 (2005)
                            F. Weigend, A. Kohn, C. Hattig, J. Chem. Phys. 116, 3175 (2002)
                    Sc-Zn : Obtained from the EMSL Basis Set Exchange (bse.pnl.gov) Feb. 2017
                            J. G. Hill, J. A. Platts, J. Chem. Phys. 128, 044104 (2008)

================================================================================
                                        WARNINGS
                       Please study these warnings very carefully!
================================================================================


WARNING: MOInp is set but Guess=PModel. MOInp will be ignored!
         To read the initial guess from a file you must also specify
         'MORead' in the simple input or 'Guess MORead' in the %scf block


WARNING: MDCI localization with Augmented Hessian Foster-Boys
  ===> : Switching off randomization!

INFO   : the flag for use of LIBINT has been found!

----- Orbital basis set information -----
Your calculation utilizes the basis: aug-cc-pVTZ 
    H, B-Ne : Obtained from the ccRepo (grant-hill.group.shef.ac.uk/ccrepo) Feb. 2017
              R. A. Kendall, T. H. Dunning, Jr., R. J. Harrison, J. Chem. Phys. 96, 6796 (1992)
         He : Obtained from the ccRepo (grant-hill.group.shef.ac.uk/ccrepo) Feb. 2017
              D. E. Woon, T. H. Dunning, Jr., J. Chem. Phys. 100, 2975 (1994)
  Li-Be, Na : Obtained from the ccRepo (grant-hill.group.shef.ac.uk/ccrepo) Feb. 2017
              B. P. Prascher, D. E. Woon, K. A. Peterson, T. H. Dunning, Jr., A. K. Wilson, Theor. Chem. Acc. 128, 69 (2011)
         Mg : Obtained from the Peterson Research Group Website (tyr0.chem.wsu.edu/~kipeters) Feb. 2017
              B. P. Prascher, D. E. Woon, K. A. Peterson, T. H. Dunning, Jr., A. K. Wilson, Theor. Chem. Acc. 128, 69 (2011)
      Al-Ar : Obtained from the ccRepo (grant-hill.group.shef.ac.uk/ccrepo) Feb. 2017
              D. E. Woon, T. H. Dunning, Jr., J. Chem. Phys. 98, 1358 (1993)
      Sc-Zn : Obtained from the ccRepo (grant-hill.group.shef.ac.uk/ccrepo) Feb. 2017
              N. B. Balabanov, K. A. Peterson, J. Chem. Phys. 123, 064107 (2005)
              N. B. Balabanov, K. A. Peterson, J. Chem. Phys. 125, 074110 (2006)
      Ga-Kr : Obtained from the ccRepo (grant-hill.group.shef.ac.uk/ccrepo) Feb. 2017
              A. K. Wilson, D. E. Woon, K. A. Peterson, T. H. Dunning, Jr., J. Chem. Phys. 110, 7667 (1999)
     Ag, Au : Obtained from the Peterson Research Group Website (tyr0.chem.wsu.edu/~kipeters) Feb. 2017
              K. A. Peterson, C. Puzzarini, Theor. Chem. Acc. 114, 283 (2005)

----- AuxC basis set information -----
Your calculation utilizes the auxiliary basis: aug-cc-pVTZ/C 
  H-He, B-F, Al-Ar, Ga-Kr : Obtained from the EMSL Basis Set Exchange (bse.pnl.gov) Feb. 2017
                            F. Weigend, A. Kohn, C. Hattig, J. Chem. Phys. 116, 3175 (2002)
                   Be, Mg : Obtained from the TURBOMOLE 7.0 basis set library
                            C. Haettig, Phys. Chem. Chem. Phys. 7, 59 (2005)
                       Ne : Obtained from the EMSL Basis Set Exchange (bse.pnl.gov) Feb. 2017
                            C. Haettig, Phys. Chem. Chem. Phys. 7, 59 (2005)
                            F. Weigend, A. Kohn, C. Hattig, J. Chem. Phys. 116, 3175 (2002)
                    Sc-Zn : Obtained from the EMSL Basis Set Exchange (bse.pnl.gov) Feb. 2017
                            J. G. Hill, J. A. Platts, J. Chem. Phys. 128, 044104 (2008)

================================================================================
                                        WARNINGS
                       Please study these warnings very carefully!
================================================================================


WARNING: MOInp is set but Guess=PModel. MOInp will be ignored!
         To read the initial guess from a file you must also specify
         'MORead' in the simple input or 'Guess MORead' in the %scf block


WARNING: MDCI localization with Augmented Hessian Foster-Boys
  ===> : Switching off randomization!

INFO   : the flag for use of LIBINT has been found!

================================================================================
                                       INPUT FILE
================================================================================
NAME = DLPNO_CP46.inp
|  1> #------------------------------------------------------
|  2> # After the Orca calculation you will get two inter-
|  3> # action energies at the end of the output file. The
|  4> # difference is the negative BSSE.
|  5> #
|  6> # The script will set the orbital guess PModel for 
|  7> # jobs 2-5 since Orca will try to use the .gbw-files of
|  8> # the earlier calculations which does not work for jobs
|  9> # 2 and 3 and does not help for jobs 4 and 5.
| 10> #------------------------------------------------------
| 11> #
| 12> #-------------------------
| 13> #     First the dimer
| 14> #-------------------------
| 15> 
| 16> %id "dimer"
| 17> ! DLPNO-CCSD(T) aug-cc-pVTZ aug-cc-pVTZ/C TightPNO
| 18> %maxcore 2000
| 19> %pal
| 20> nprocs 10
| 21> end
| 22> 
| 23> * xyz 0 1
| 24> H    -0.488267     1.549742    -1.408848 
| 25> O    -0.453976     2.534183    -1.399941 
| 26> H    -1.397495     2.777556    -1.423680 
| 27> H    -1.077884    -0.382374    -2.060070 
| 28> O    -0.340933    -0.206968    -1.434877 
| 29> H     0.480757    -0.265549    -1.998114 
| 30> H     1.187103     2.296033    -0.372660 
| 31> O     1.959231     1.845218     0.014694 
| 32> H     1.639942     0.960108     0.234918 
| 33> H     0.932536    -1.743280     0.871883 
| 34> O     1.707631    -1.239914     1.208268 
| 35> H     2.320982    -1.964590     1.469140 
| 36> H    -1.277101    -2.594218     0.046512 
| 37> O    -0.337475    -2.485747    -0.161063 
| 38> H    -0.351778    -1.618876    -0.664635 
| 39> H    -2.809094    -0.733862     0.006994 
| 40> O    -3.067670    -1.579466    -0.429121 
| 41> H    -3.484168    -1.253280    -1.248844 
| 42> H     2.909421    -1.001659    -0.113586 
| 43> O     3.581357    -0.837560    -0.811191 
| 44> H     3.999791    -0.000923    -0.560700 
| 45> H    -1.722649     0.977572     1.243224 
| 46> O    -2.608703     0.883831     0.789101 
| 47> H    -2.612158     1.533252     0.072119 
| 48> N    -0.264879     1.009637     2.298144 
| 49> H     0.325524     1.816916     2.115465 
| 50> H     0.342556     0.192694     2.235598 
| 51> H    -0.579567     1.078657     3.261317 
| 52> *
| 53> 
| 54> #--------------------------
| 55> #   Now the fragments at
| 56> #      dimer-geometry 
| 57> #-------------------------
| 58> 
| 59> $new_job
| 60> %id "fragment"
| 61> %scf guess PModel end
| 62> ! DLPNO-CCSD(T) aug-cc-pVTZ aug-cc-pVTZ/C TightPNO
| 63> %maxcore 2000
| 64> %pal
| 65> nprocs 10
| 66> end
| 67> 
| 68> * xyz 0 1
| 69> H    -0.488267     1.549742    -1.408848 
| 70> O    -0.453976     2.534183    -1.399941 
| 71> H    -1.397495     2.777556    -1.423680 
| 72> H    -1.077884    -0.382374    -2.060070 
| 73> O    -0.340933    -0.206968    -1.434877 
| 74> H     0.480757    -0.265549    -1.998114 
| 75> H     1.187103     2.296033    -0.372660 
| 76> O     1.959231     1.845218     0.014694 
| 77> H     1.639942     0.960108     0.234918 
| 78> H     0.932536    -1.743280     0.871883 
| 79> O     1.707631    -1.239914     1.208268 
| 80> H     2.320982    -1.964590     1.469140 
| 81> H    -1.277101    -2.594218     0.046512 
| 82> O    -0.337475    -2.485747    -0.161063 
| 83> H    -0.351778    -1.618876    -0.664635 
| 84> H    -2.809094    -0.733862     0.006994 
| 85> O    -3.067670    -1.579466    -0.429121 
| 86> H    -3.484168    -1.253280    -1.248844 
| 87> H     2.909421    -1.001659    -0.113586 
| 88> O     3.581357    -0.837560    -0.811191 
| 89> H     3.999791    -0.000923    -0.560700 
| 90> H    -1.722649     0.977572     1.243224 
| 91> O    -2.608703     0.883831     0.789101 
| 92> H    -2.612158     1.533252     0.072119 
| 93> *
| 94> 
| 95> $new_job
| 96> %id "fragment"
| 97> %scf guess PModel end
| 98> ! DLPNO-CCSD(T) aug-cc-pVTZ aug-cc-pVTZ/C TightPNO
| 99> %maxcore 2000
|100> %pal
|101> nprocs 10
|102> end
|103> 
|104> * xyz 0 1
|105> N    -0.264879     1.009637     2.298144 
|106> H     0.325524     1.816916     2.115465 
|107> H     0.342556     0.192694     2.235598 
|108> H    -0.579567     1.078657     3.261317 
|109> *
|110> 
|111> #--------------------------
|112> #   Now the fragments at
|113> #   dimer-geometry with  
|114> #     the dimer-basis
|115> #-------------------------
|116> 
|117> $new_job
|118> %id "ghost"
|119> %scf guess PModel end
|120> ! DLPNO-CCSD(T) aug-cc-pVTZ aug-cc-pVTZ/C TightPNO
|121> %maxcore 2000
|122> %pal
|123> nprocs 10
|124> end
|125> 
|126> * xyz 0 1
|127> H         -0.488267     1.549742    -1.408848 
|128> O         -0.453976     2.534183    -1.399941 
|129> H         -1.397495     2.777556    -1.423680 
|130> H         -1.077884    -0.382374    -2.060070 
|131> O         -0.340933    -0.206968    -1.434877 
|132> H          0.480757    -0.265549    -1.998114 
|133> H          1.187103     2.296033    -0.372660 
|134> O          1.959231     1.845218     0.014694 
|135> H          1.639942     0.960108     0.234918 
|136> H          0.932536    -1.743280     0.871883 
|137> O          1.707631    -1.239914     1.208268 
|138> H          2.320982    -1.964590     1.469140 
|139> H         -1.277101    -2.594218     0.046512 
|140> O         -0.337475    -2.485747    -0.161063 
|141> H         -0.351778    -1.618876    -0.664635 
|142> H         -2.809094    -0.733862     0.006994 
|143> O         -3.067670    -1.579466    -0.429121 
|144> H         -3.484168    -1.253280    -1.248844 
|145> H          2.909421    -1.001659    -0.113586 
|146> O          3.581357    -0.837560    -0.811191 
|147> H          3.999791    -0.000923    -0.560700 
|148> H         -1.722649     0.977572     1.243224 
|149> O         -2.608703     0.883831     0.789101 
|150> H         -2.612158     1.533252     0.072119 
|151> N :       -0.264879     1.009637     2.298144 
|152> H :        0.325524     1.816916     2.115465 
|153> H :        0.342556     0.192694     2.235598 
|154> H :       -0.579567     1.078657     3.261317 
|155> *
|156> 
|157> $new_job
|158> %id "ghost"
|159> %scf guess PModel end
|160> ! DLPNO-CCSD(T) aug-cc-pVTZ aug-cc-pVTZ/C TightPNO
|161> %maxcore 2000
|162> %pal
|163> nprocs 10
|164> end
|165> 
|166> * xyz 0 1
|167> H :       -0.488267     1.549742    -1.408848 
|168> O :       -0.453976     2.534183    -1.399941 
|169> H :       -1.397495     2.777556    -1.423680 
|170> H :       -1.077884    -0.382374    -2.060070 
|171> O :       -0.340933    -0.206968    -1.434877 
|172> H :        0.480757    -0.265549    -1.998114 
|173> H :        1.187103     2.296033    -0.372660 
|174> O :        1.959231     1.845218     0.014694 
|175> H :        1.639942     0.960108     0.234918 
|176> H :        0.932536    -1.743280     0.871883 
|177> O :        1.707631    -1.239914     1.208268 
|178> H :        2.320982    -1.964590     1.469140 
|179> H :       -1.277101    -2.594218     0.046512 
|180> O :       -0.337475    -2.485747    -0.161063 
|181> H :       -0.351778    -1.618876    -0.664635 
|182> H :       -2.809094    -0.733862     0.006994 
|183> O :       -3.067670    -1.579466    -0.429121 
|184> H :       -3.484168    -1.253280    -1.248844 
|185> H :        2.909421    -1.001659    -0.113586 
|186> O :        3.581357    -0.837560    -0.811191 
|187> H :        3.999791    -0.000923    -0.560700 
|188> H :       -1.722649     0.977572     1.243224 
|189> O :       -2.608703     0.883831     0.789101 
|190> H :       -2.612158     1.533252     0.072119 
|191> N         -0.264879     1.009637     2.298144 
|192> H          0.325524     1.816916     2.115465 
|193> H          0.342556     0.192694     2.235598 
|194> H         -0.579567     1.078657     3.261317 
|195> *
|196> 
|197> 
|198>                          ****END OF INPUT****
================================================================================


                 $$$$$$$$$$$$$$$$$$$$$$$$$$$$$$$$$$$$$$$$$$$$$$ 
                 $ THERE ARE  5 JOBS TO BE PROCESSED THIS RUN $
                 $$$$$$$$$$$$$$$$$$$$$$$$$$$$$$$$$$$$$$$$$$$$$$ 




                 $$$$$$$$$$$$$$$$  JOB NUMBER  1 $$$$$$$$$$$$$$


                       ****************************
                       * Single Point Calculation *
                       ****************************

---------------------------------
CARTESIAN COORDINATES (ANGSTROEM)
---------------------------------
  H     -0.488267    1.549742   -1.408848
  O     -0.453976    2.534183   -1.399941
  H     -1.397495    2.777556   -1.423680
  H     -1.077884   -0.382374   -2.060070
  O     -0.340933   -0.206968   -1.434877
  H      0.480757   -0.265549   -1.998114
  H      1.187103    2.296033   -0.372660
  O      1.959231    1.845218    0.014694
  H      1.639942    0.960108    0.234918
  H      0.932536   -1.743280    0.871883
  O      1.707631   -1.239914    1.208268
  H      2.320982   -1.964590    1.469140
  H     -1.277101   -2.594218    0.046512
  O     -0.337475   -2.485747   -0.161063
  H     -0.351778   -1.618876   -0.664635
  H     -2.809094   -0.733862    0.006994
  O     -3.067670   -1.579466   -0.429121
  H     -3.484168   -1.253280   -1.248844
  H      2.909421   -1.001659   -0.113586
  O      3.581357   -0.837560   -0.811191
  H      3.999791   -0.000923   -0.560700
  H     -1.722649    0.977572    1.243224
  O     -2.608703    0.883831    0.789101
  H     -2.612158    1.533252    0.072119
  N     -0.264879    1.009637    2.298144
  H      0.325524    1.816916    2.115465
  H      0.342556    0.192694    2.235598
  H     -0.579567    1.078657    3.261317

----------------------------
CARTESIAN COORDINATES (A.U.)
----------------------------
  NO LB      ZA    FRAG     MASS         X           Y           Z
   0 H     1.0000    0     1.008   -0.922691    2.928588   -2.662337
   1 O     8.0000    0    15.999   -0.857890    4.788912   -2.645505
   2 H     1.0000    0     1.008   -2.640883    5.248820   -2.690365
   3 H     1.0000    0     1.008   -2.036906   -0.722582   -3.892968
   4 O     8.0000    0    15.999   -0.644270   -0.391113   -2.711525
   5 H     1.0000    0     1.008    0.908499   -0.501815   -3.775888
   6 H     1.0000    0     1.008    2.243300    4.338874   -0.704225
   7 O     8.0000    0    15.999    3.702410    3.486957    0.027768
   8 H     1.0000    0     1.008    3.099041    1.814341    0.443931
   9 H     1.0000    0     1.008    1.762238   -3.294322    1.647620
  10 O     8.0000    0    15.999    3.226955   -2.343098    2.283296
  11 H     1.0000    0     1.008    4.386020   -3.712537    2.776272
  12 H     1.0000    0     1.008   -2.413371   -4.902362    0.087895
  13 O     8.0000    0    15.999   -0.637735   -4.697381   -0.304365
  14 H     1.0000    0     1.008   -0.664764   -3.059232   -1.255978
  15 H     1.0000    0     1.008   -5.308418   -1.386798    0.013217
  16 O     8.0000    0    15.999   -5.797056   -2.984758   -0.810921
  17 H     1.0000    0     1.008   -6.584123   -2.368356   -2.359973
  18 H     1.0000    0     1.008    5.498009   -1.892861   -0.214646
  19 O     8.0000    0    15.999    6.767784   -1.582759   -1.532929
  20 H     1.0000    0     1.008    7.558510   -0.001744   -1.059569
  21 H     1.0000    0     1.008   -3.255335    1.847343    2.349353
  22 O     8.0000    0    15.999   -4.929734    1.670199    1.491185
  23 H     1.0000    0     1.008   -4.936263    2.897426    0.136285
  24 N     7.0000    0    14.007   -0.500549    1.907937    4.342863
  25 H     1.0000    0     1.008    0.615151    3.433474    3.997649
  26 H     1.0000    0     1.008    0.647337    0.364139    4.224668
  27 H     1.0000    0     1.008   -1.095223    2.038366    6.162996

--------------------------------
INTERNAL COORDINATES (ANGSTROEM)
--------------------------------
 H      0   0   0     0.000000000000     0.00000000     0.00000000
 O      1   0   0     0.985078316588     0.00000000     0.00000000
 H      2   1   0     0.974690751270   102.45152923     0.00000000
 H      1   2   3     2.122453895242   157.24651358    48.97025798
 O      4   1   2     0.982206866442    55.50726050   168.07142113
 H      5   4   1     0.997918888402   104.36267011   260.02171187
 H      2   1   3     1.950682434355    84.95378196   149.57233492
 O      7   2   1     0.974401833909   158.82443171    13.98575857
 H      8   7   2     0.966366280350   104.62752325   323.67922343
 H      9   8   7     2.866086938424   174.94979461   155.66181996
 O     10   9   8     0.983516373634    53.04038848    41.97724757
 H     11  10   9     0.984585676598   101.82154696   202.50672951
 H     10   9   8     2.507554274438   117.67330509   214.39863577
 O     13  10   9     0.968375112414    34.66540792    88.77172987
 H     14  13  10     1.002623890417   100.99160427   265.75738126
 H     13  10   9     2.410288088820   107.67177955   328.02222389
 O     16  13  10     0.985953328417    60.78927276   168.82873733
 H     17  16  13     0.975609392805   101.35370475   221.66784925
 H     11  10   9     1.802321460351   110.01753633   289.16307350
 O     19  11  10     0.982384449145   177.40388231   158.87629551
 H     20  19  11     0.968397760843   104.84316738   351.44254793
 H     16  13  10     2.374370166440   104.89013368   346.99344908
 O     22  16  13     1.000053381138    44.81344182   182.39171170
 H     23  22  16     0.967379326113   106.06913047   244.39189103
 N     22  16  13     1.799716017466   133.52434034   348.91597205
 H     25  22  16     1.016684170867   112.28437407   136.09000661
 H     25  22  16     1.019943697755   115.60635904    14.02267645
 H     25  22  16     1.015625189562   107.82567120   254.00916881

---------------------------
INTERNAL COORDINATES (A.U.)
---------------------------
 H      0   0   0     0.000000000000     0.00000000     0.00000000
 O      1   0   0     1.861528238815     0.00000000     0.00000000
 H      2   1   0     1.841898585166   102.45152923     0.00000000
 H      1   2   3     4.010856593882   157.24651358    48.97025798
 O      4   1   2     1.856101984433    55.50726050   168.07142113
 H      5   4   1     1.885793402947   104.36267011   260.02171187
 H      2   1   3     3.686255575182    84.95378196   149.57233492
 O      7   2   1     1.841352610478   158.82443171    13.98575857
 H      8   7   2     1.826167614917   104.62752325   323.67922343
 H      9   8   7     5.416119389630   174.94979461   155.66181996
 O     10   9   8     1.858576594395    53.04038848    41.97724757
 H     11  10   9     1.860597284151   101.82154696   202.50672951
 H     10   9   8     4.738590844632   117.67330509   214.39863577
 O     13  10   9     1.829963757367    34.66540792    88.77172987
 H     14  13  10     1.894684568214   100.99160427   265.75738126
 H     13  10   9     4.554784391723   107.67177955   328.02222389
 O     16  13  10     1.863181771537    60.78927276   168.82873733
 H     17  16  13     1.843634566082   101.35370475   221.66784925
 H     11  10   9     3.405893965352   110.01753633   289.16307350
 O     19  11  10     1.856437567107   177.40388231   158.87629551
 H     20  19  11     1.830006556696   104.84316738   351.44254793
 H     16  13  10     4.486909355125   104.89013368   346.99344908
 O     22  16  13     1.889827009653    44.81344182   182.39171170
 H     23  22  16     1.828081993970   106.06913047   244.39189103
 N     22  16  13     3.400970391843   133.52434034   348.91597205
 H     25  22  16     1.921254647631   112.28437407   136.09000661
 H     25  22  16     1.927414260776   115.60635904    14.02267645
 H     25  22  16     1.919253462984   107.82567120   254.00916881

---------------------
BASIS SET INFORMATION
---------------------
There are 3 groups of distinct atoms

 Group   1 Type H   : 6s3p2d contracted to 4s3p2d pattern {3111/111/11}
 Group   2 Type O   : 19s6p3d2f contracted to 5s4p3d2f pattern {88111/3111/111/11}
 Group   3 Type N   : 19s6p3d2f contracted to 5s4p3d2f pattern {88111/3111/111/11}

Atom   0H    basis set group =>   1
Atom   1O    basis set group =>   2
Atom   2H    basis set group =>   1
Atom   3H    basis set group =>   1
Atom   4O    basis set group =>   2
Atom   5H    basis set group =>   1
Atom   6H    basis set group =>   1
Atom   7O    basis set group =>   2
Atom   8H    basis set group =>   1
Atom   9H    basis set group =>   1
Atom  10O    basis set group =>   2
Atom  11H    basis set group =>   1
Atom  12H    basis set group =>   1
Atom  13O    basis set group =>   2
Atom  14H    basis set group =>   1
Atom  15H    basis set group =>   1
Atom  16O    basis set group =>   2
Atom  17H    basis set group =>   1
Atom  18H    basis set group =>   1
Atom  19O    basis set group =>   2
Atom  20H    basis set group =>   1
Atom  21H    basis set group =>   1
Atom  22O    basis set group =>   2
Atom  23H    basis set group =>   1
Atom  24N    basis set group =>   3
Atom  25H    basis set group =>   1
Atom  26H    basis set group =>   1
Atom  27H    basis set group =>   1
---------------------------------
AUXILIARY/C BASIS SET INFORMATION
---------------------------------
There are 3 groups of distinct atoms

 Group   1 Type H   : 5s4p3d2f contracted to 5s4p3d2f pattern {11111/1111/111/11}
 Group   2 Type O   : 9s7p6d4f2g contracted to 9s7p6d4f2g pattern {111111111/1111111/111111/1111/11}
 Group   3 Type N   : 9s7p6d4f2g contracted to 9s7p6d4f2g pattern {111111111/1111111/111111/1111/11}

Atom   0H    basis set group =>   1
Atom   1O    basis set group =>   2
Atom   2H    basis set group =>   1
Atom   3H    basis set group =>   1
Atom   4O    basis set group =>   2
Atom   5H    basis set group =>   1
Atom   6H    basis set group =>   1
Atom   7O    basis set group =>   2
Atom   8H    basis set group =>   1
Atom   9H    basis set group =>   1
Atom  10O    basis set group =>   2
Atom  11H    basis set group =>   1
Atom  12H    basis set group =>   1
Atom  13O    basis set group =>   2
Atom  14H    basis set group =>   1
Atom  15H    basis set group =>   1
Atom  16O    basis set group =>   2
Atom  17H    basis set group =>   1
Atom  18H    basis set group =>   1
Atom  19O    basis set group =>   2
Atom  20H    basis set group =>   1
Atom  21H    basis set group =>   1
Atom  22O    basis set group =>   2
Atom  23H    basis set group =>   1
Atom  24N    basis set group =>   3
Atom  25H    basis set group =>   1
Atom  26H    basis set group =>   1
Atom  27H    basis set group =>   1


           ************************************************************
           *        Program running with 10 parallel MPI-processes    *
           *              working on a common directory               *
           ************************************************************
------------------------------------------------------------------------------
                           ORCA GTO INTEGRAL CALCULATION
------------------------------------------------------------------------------

                         BASIS SET STATISTICS AND STARTUP INFO

 # of primitive gaussian shells          ...  479
 # of primitive gaussian functions       ... 1069
 # of contracted shells                  ...  297
 # of contracted basis functions         ...  851
 Highest angular momentum                ...    3
 Maximum contraction depth               ...    8
 Integral package used                   ... LIBINT
 Integral threshhold            Thresh   ...  1.000e-10
 Primitive cut-off              TCut     ...  1.000e-11


------------------------------ INTEGRAL EVALUATION ----------------------------


 * One electron integrals 
 Pre-screening matrix                    ... done
 Shell pair data                         ... done (   0.017 sec)



           ************************************************************
           *        Program running with 10 parallel MPI-processes    *
           *              working on a common directory               *
           ************************************************************
-------------------------------------------------------------------------------
                                 ORCA SCF
-------------------------------------------------------------------------------

------------
SCF SETTINGS
------------
Hamiltonian:
 Ab initio Hamiltonian  Method          .... Hartree-Fock(GTOs)


General Settings:
 Integral files         IntName         .... DLPNO_CP46
 Hartree-Fock type      HFTyp           .... RHF
 Total Charge           Charge          ....    0
 Multiplicity           Mult            ....    1
 Number of Electrons    NEL             ....   90
 Basis Dimension        Dim             ....  851
 Nuclear Repulsion      ENuc            ....    591.0394253636 Eh

Convergence Acceleration:
 DIIS                   CNVDIIS         .... on
   Start iteration      DIISMaxIt       ....    12
   Startup error        DIISStart       ....  0.200000
   # of expansion vecs  DIISMaxEq       ....     5
   Bias factor          DIISBfac        ....   1.050
   Max. coefficient     DIISMaxC        ....  10.000
 Newton-Raphson         CNVNR           .... off
 SOSCF                  CNVSOSCF        .... on
   Start iteration      SOSCFMaxIt      ....   150
   Startup grad/error   SOSCFStart      ....  0.003300
 Level Shifting         CNVShift        .... on
   Level shift para.    LevelShift      ....    0.2500
   Turn off err/grad.   ShiftErr        ....    0.0010
 Zerner damping         CNVZerner       .... off
 Static damping         CNVDamp         .... on
   Fraction old density DampFac         ....    0.7000
   Max. Damping (<1)    DampMax         ....    0.9800
   Min. Damping (>=0)   DampMin         ....    0.0000
   Turn off err/grad.   DampErr         ....    0.1000
 Fernandez-Rico         CNVRico         .... off

SCF Procedure:
 Maximum # iterations   MaxIter         ....   125
 SCF integral mode      SCFMode         .... Direct
   Integral package                     .... LIBINT
 Reset frequency        DirectResetFreq ....    20
 Integral Threshold     Thresh          ....  1.000e-10 Eh
 Primitive CutOff       TCut            ....  1.000e-11 Eh

Convergence Tolerance:
 Convergence Check Mode ConvCheckMode   .... Total+1el-Energy
 Convergence forced     ConvForced      .... 1
 Energy Change          TolE            ....  1.000e-06 Eh
 1-El. energy change                    ....  1.000e-03 Eh
 Orbital Gradient       TolG            ....  5.000e-05
 Orbital Rotation angle TolX            ....  5.000e-05
 DIIS Error             TolErr          ....  1.000e-06


Diagonalization of the overlap matrix:
Smallest eigenvalue                        ... 7.829e-06
Time for diagonalization                   ...    0.203 sec
Threshold for overlap eigenvalues          ... 1.000e-08
Number of eigenvalues below threshold      ... 0
Time for construction of square roots      ...    0.125 sec
Total time needed                          ...    0.331 sec

-------------------
DFT GRID GENERATION
-------------------

General Integration Accuracy     IntAcc      ...  4.340
Radial Grid Type                 RadialGrid  ... Gauss-Chebyshev
Angular Grid (max. acc.)         AngularGrid ... Lebedev-110
Angular grid pruning method      GridPruning ... 3 (G Style)
Weight generation scheme         WeightScheme... Becke
Basis function cutoff            BFCut       ...    1.0000e-10
Integration weight cutoff        WCut        ...    1.0000e-14
Grids for H and He will be reduced by one unit

# of grid points (after initial pruning)     ...  30516 (   0.0 sec)
# of grid points (after weights+screening)   ...  28008 (   0.0 sec)
nearest neighbour list constructed           ...    0.0 sec
Grid point re-assignment to atoms done       ...    0.0 sec
Grid point division into batches done        ...    0.0 sec
Reduced shell lists constructed in    0.1 sec

Total number of grid points                  ...    28008
Total number of batches                      ...      452
Average number of points per batch           ...       61
Average number of grid points per atom       ...     1000
Average number of shells per batch           ...   182.45 (61.43%)
Average number of basis functions per batch  ...   491.30 (57.73%)
Average number of large shells per batch     ...   135.17 (74.09%)
Average number of large basis fcns per batch ...   348.19 (70.87%)
Maximum spatial batch extension              ...  14.63, 16.99, 16.73 au
Average spatial batch extension              ...   0.30,  0.35,  0.37 au

Time for grid setup =    0.177 sec

------------------------------
INITIAL GUESS: MODEL POTENTIAL
------------------------------
Loading Hartree-Fock densities                     ... done
Calculating cut-offs                               ... done
Setting up the integral package                    ... done
Initializing the effective Hamiltonian             ... done
Starting the Coulomb interaction                   ... done (   0.3 sec)
Reading the grid                                   ... done
Mapping shells                                     ... done
Starting the XC term evaluation                    ... done (   0.2 sec)
Transforming the Hamiltonian                       ... done (   0.1 sec)
Diagonalizing the Hamiltonian                      ... done (   0.2 sec)
Back transforming the eigenvectors                 ... done (   0.0 sec)
Now organizing SCF variables                       ... done
                      ------------------
                      INITIAL GUESS DONE (   1.1 sec)
                      ------------------
--------------
SCF ITERATIONS
--------------
ITER       Energy         Delta-E        Max-DP      RMS-DP      [F,P]     Damp
               ***  Starting incremental Fock matrix formation  ***
  0   -663.9162891674   0.000000000000 0.03529112  0.00038941  0.3766251 0.7000
  1   -664.2284079404  -0.312118772985 0.02543995  0.00028658  0.2198744 0.7000
                               ***Turning on DIIS***
  2   -664.3951921907  -0.166784250326 0.02062275  0.00018468  0.1204625 0.7000
  3   -665.6978679870  -1.302675796231 0.05843043  0.00043122  0.0847033 0.0000
  4   -664.4918989301   1.205969056912 0.00908438  0.00005917  0.0149035 0.0000
  5   -664.6948484469  -0.202949516884 0.00394922  0.00002864  0.0038423 0.0000
                      *** Initiating the SOSCF procedure ***
                           *** Shutting down DIIS ***
                      *** Re-Reading the Fockian *** 
                      *** Removing any level shift *** 
ITER      Energy       Delta-E        Grad      Rot      Max-DP    RMS-DP
  6   -664.70350570  -0.0086572493  0.000564  0.000564  0.001982  0.000015
               *** Restarting incremental Fock matrix formation ***
  7   -664.71880459  -0.0152988959  0.000123  0.000253  0.000510  0.000005
  8   -664.71881266  -0.0000080700  0.000071  0.000199  0.000391  0.000004
  9   -664.71881462  -0.0000019537  0.000025  0.000033  0.000084  0.000001
                 **** Energy Check signals convergence ****
              ***Rediagonalizing the Fockian in SOSCF/NRSCF***

               *****************************************************
               *                     SUCCESS                       *
               *           SCF CONVERGED AFTER  10 CYCLES          *
               *****************************************************


----------------
TOTAL SCF ENERGY
----------------

Total Energy       :         -664.71881477 Eh          -18087.91852 eV

Components:
Nuclear Repulsion  :          591.03942536 Eh           16083.00041 eV
Electronic Energy  :        -1255.75824013 Eh          -34170.91893 eV
One Electron Energy:        -2094.50166963 Eh          -56994.28796 eV
Two Electron Energy:          838.74342950 Eh           22823.36903 eV

Virial components:
Potential Energy   :        -1328.29859105 Eh          -36144.84223 eV
Kinetic Energy     :          663.57977628 Eh           18056.92371 eV
Virial Ratio       :            2.00171651


---------------
SCF CONVERGENCE
---------------

  Last Energy change         ...   -1.5020e-07  Tolerance :   1.0000e-06
  Last MAX-Density change    ...    8.5563e-05  Tolerance :   1.0000e-05
  Last RMS-Density change    ...    5.1344e-07  Tolerance :   1.0000e-06
  Last Orbital Gradient      ...    5.2016e-06  Tolerance :   5.0000e-05
  Last Orbital Rotation      ...    7.7651e-06  Tolerance :   5.0000e-05

             **** THE GBW FILE WAS UPDATED (DLPNO_CP46.gbw) ****
             **** DENSITY FILE WAS UPDATED (DLPNO_CP46.scfp) ****
             **** ENERGY FILE WAS UPDATED (DLPNO_CP46.en.tmp) ****
             **** THE GBW FILE WAS UPDATED (DLPNO_CP46.gbw) ****
             **** DENSITY FILE WAS UPDATED (DLPNO_CP46.scfp) ****
----------------
ORBITAL ENERGIES
----------------

  NO   OCC          E(Eh)            E(eV) 
   0   2.0000     -20.647405      -561.8445 
   1   2.0000     -20.585266      -560.1536 
   2   2.0000     -20.580296      -560.0183 
   3   2.0000     -20.564469      -559.5876 
   4   2.0000     -20.563920      -559.5727 
   5   2.0000     -20.547375      -559.1225 
   6   2.0000     -20.545309      -559.0663 
   7   2.0000     -20.533003      -558.7314 
   8   2.0000     -15.560669      -423.4273 
   9   2.0000      -1.430161       -38.9167 
  10   2.0000      -1.366650       -37.1884 
  11   2.0000      -1.365981       -37.1702 
  12   2.0000      -1.353144       -36.8209 
  13   2.0000      -1.339158       -36.4403 
  14   2.0000      -1.328617       -36.1535 
  15   2.0000      -1.327652       -36.1272 
  16   2.0000      -1.312152       -35.7055 
  17   2.0000      -1.162780       -31.6409 
  18   2.0000      -0.781412       -21.2633 
  19   2.0000      -0.744063       -20.2470 
  20   2.0000      -0.732848       -19.9418 
  21   2.0000      -0.717720       -19.5302 
  22   2.0000      -0.710323       -19.3289 
  23   2.0000      -0.708083       -19.2679 
  24   2.0000      -0.699511       -19.0347 
  25   2.0000      -0.683914       -18.6102 
  26   2.0000      -0.659198       -17.9377 
  27   2.0000      -0.653678       -17.7875 
  28   2.0000      -0.648476       -17.6459 
  29   2.0000      -0.631384       -17.1808 
  30   2.0000      -0.611557       -16.6413 
  31   2.0000      -0.606537       -16.5047 
  32   2.0000      -0.588964       -16.0265 
  33   2.0000      -0.576303       -15.6820 
  34   2.0000      -0.565299       -15.3826 
  35   2.0000      -0.559588       -15.2272 
  36   2.0000      -0.544044       -14.8042 
  37   2.0000      -0.525415       -14.2973 
  38   2.0000      -0.513473       -13.9723 
  39   2.0000      -0.507867       -13.8198 
  40   2.0000      -0.505192       -13.7470 
  41   2.0000      -0.494800       -13.4642 
  42   2.0000      -0.492882       -13.4120 
  43   2.0000      -0.474906       -12.9229 
  44   2.0000      -0.455735       -12.4012 
  45   0.0000       0.008648         0.2353 
  46   0.0000       0.029289         0.7970 
  47   0.0000       0.033378         0.9083 
  48   0.0000       0.040767         1.1093 
  49   0.0000       0.045741         1.2447 
  50   0.0000       0.054220         1.4754 
  51   0.0000       0.057128         1.5545 
  52   0.0000       0.061085         1.6622 
  53   0.0000       0.063099         1.7170 
  54   0.0000       0.074093         2.0162 
  55   0.0000       0.075663         2.0589 
  56   0.0000       0.077029         2.0961 
  57   0.0000       0.081293         2.2121 
  58   0.0000       0.085836         2.3357 
  59   0.0000       0.089406         2.4329 
  60   0.0000       0.092785         2.5248 
  61   0.0000       0.098443         2.6788 
  62   0.0000       0.105969         2.8836 
  63   0.0000       0.112134         3.0513 
  64   0.0000       0.123166         3.3515 
  65   0.0000       0.135737         3.6936 
  66   0.0000       0.146438         3.9848 
  67   0.0000       0.150087         4.0841 
  68   0.0000       0.152329         4.1451 
  69   0.0000       0.165775         4.5110 
  70   0.0000       0.170802         4.6478 
  71   0.0000       0.181067         4.9271 
  72   0.0000       0.181837         4.9480 
  73   0.0000       0.183827         5.0022 
  74   0.0000       0.187385         5.0990 
  75   0.0000       0.193115         5.2549 
  76   0.0000       0.195952         5.3321 
  77   0.0000       0.197492         5.3740 
  78   0.0000       0.199337         5.4242 
  79   0.0000       0.203420         5.5354 
  80   0.0000       0.204030         5.5520 
  81   0.0000       0.211589         5.7576 
  82   0.0000       0.214026         5.8240 
  83   0.0000       0.215390         5.8610 
  84   0.0000       0.223146         6.0721 
  85   0.0000       0.224601         6.1117 
  86   0.0000       0.228873         6.2279 
  87   0.0000       0.234289         6.3753 
  88   0.0000       0.240979         6.5574 
  89   0.0000       0.245441         6.6788 
  90   0.0000       0.247506         6.7350 
  91   0.0000       0.250304         6.8111 
  92   0.0000       0.252587         6.8732 
  93   0.0000       0.257589         7.0094 
  94   0.0000       0.264851         7.2070 
  95   0.0000       0.268571         7.3082 
  96   0.0000       0.269317         7.3285 
  97   0.0000       0.274967         7.4822 
  98   0.0000       0.281304         7.6547 
  99   0.0000       0.286772         7.8035 
 100   0.0000       0.292971         7.9722 
 101   0.0000       0.305048         8.3008 
 102   0.0000       0.307733         8.3738 
 103   0.0000       0.321043         8.7360 
 104   0.0000       0.326516         8.8850 
 105   0.0000       0.331456         9.0194 
 106   0.0000       0.336155         9.1472 
 107   0.0000       0.340283         9.2596 
 108   0.0000       0.350638         9.5413 
 109   0.0000       0.354074         9.6349 
 110   0.0000       0.362080         9.8527 
 111   0.0000       0.369966        10.0673 
 112   0.0000       0.372881        10.1466 
 113   0.0000       0.375372        10.2144 
 114   0.0000       0.378195        10.2912 
 115   0.0000       0.379659        10.3311 
 116   0.0000       0.383887        10.4461 
 117   0.0000       0.388317        10.5666 
 118   0.0000       0.392649        10.6845 
 119   0.0000       0.395472        10.7613 
 120   0.0000       0.401161        10.9161 
 121   0.0000       0.403014        10.9666 
 122   0.0000       0.411228        11.1901 
 123   0.0000       0.412060        11.2127 
 124   0.0000       0.418429        11.3860 
 125   0.0000       0.424468        11.5504 
 126   0.0000       0.427210        11.6250 
 127   0.0000       0.431513        11.7421 
 128   0.0000       0.433270        11.7899 
 129   0.0000       0.435711        11.8563 
 130   0.0000       0.440101        11.9757 
 131   0.0000       0.440657        11.9909 
 132   0.0000       0.446522        12.1505 
 133   0.0000       0.448884        12.2147 
 134   0.0000       0.451863        12.2958 
 135   0.0000       0.456640        12.4258 
 136   0.0000       0.460821        12.5396 
 137   0.0000       0.465863        12.6768 
 138   0.0000       0.471210        12.8223 
 139   0.0000       0.475381        12.9358 
 140   0.0000       0.476842        12.9755 
 141   0.0000       0.483525        13.1574 
 142   0.0000       0.485139        13.2013 
 143   0.0000       0.493830        13.4378 
 144   0.0000       0.496354        13.5065 
 145   0.0000       0.496918        13.5218 
 146   0.0000       0.504907        13.7392 
 147   0.0000       0.506886        13.7931 
 148   0.0000       0.515253        14.0207 
 149   0.0000       0.517083        14.0705 
 150   0.0000       0.523424        14.2431 
 151   0.0000       0.526171        14.3178 
 152   0.0000       0.531471        14.4621 
 153   0.0000       0.535261        14.5652 
 154   0.0000       0.540312        14.7026 
 155   0.0000       0.541390        14.7320 
 156   0.0000       0.542221        14.7546 
 157   0.0000       0.543910        14.8005 
 158   0.0000       0.550305        14.9746 
 159   0.0000       0.556432        15.1413 
 160   0.0000       0.562883        15.3168 
 161   0.0000       0.570782        15.5318 
 162   0.0000       0.576740        15.6939 
 163   0.0000       0.581546        15.8247 
 164   0.0000       0.594637        16.1809 
 165   0.0000       0.602342        16.3906 
 166   0.0000       0.603333        16.4175 
 167   0.0000       0.611787        16.6476 
 168   0.0000       0.617238        16.7959 
 169   0.0000       0.619987        16.8707 
 170   0.0000       0.636417        17.3178 
 171   0.0000       0.643159        17.5012 
 172   0.0000       0.646383        17.5890 
 173   0.0000       0.654026        17.7969 
 174   0.0000       0.657294        17.8859 
 175   0.0000       0.662293        18.0219 
 176   0.0000       0.670124        18.2350 
 177   0.0000       0.674114        18.3436 
 178   0.0000       0.690535        18.7904 
 179   0.0000       0.693199        18.8629 
 180   0.0000       0.709262        19.3000 
 181   0.0000       0.721181        19.6243 
 182   0.0000       0.723033        19.6747 
 183   0.0000       0.728162        19.8143 
 184   0.0000       0.733981        19.9726 
 185   0.0000       0.741235        20.1700 
 186   0.0000       0.752308        20.4713 
 187   0.0000       0.762371        20.7452 
 188   0.0000       0.765163        20.8211 
 189   0.0000       0.768815        20.9205 
 190   0.0000       0.775364        21.0987 
 191   0.0000       0.775652        21.1066 
 192   0.0000       0.783711        21.3259 
 193   0.0000       0.791259        21.5313 
 194   0.0000       0.794407        21.6169 
 195   0.0000       0.797047        21.6887 
 196   0.0000       0.809211        22.0198 
 197   0.0000       0.811450        22.0807 
 198   0.0000       0.824438        22.4341 
 199   0.0000       0.831189        22.6178 
 200   0.0000       0.838728        22.8229 
 201   0.0000       0.842609        22.9285 
 202   0.0000       0.846432        23.0326 
 203   0.0000       0.848159        23.0796 
 204   0.0000       0.851202        23.1624 
 205   0.0000       0.856027        23.2937 
 206   0.0000       0.861147        23.4330 
 207   0.0000       0.868633        23.6367 
 208   0.0000       0.875689        23.8287 
 209   0.0000       0.884992        24.0819 
 210   0.0000       0.887747        24.1568 
 211   0.0000       0.891385        24.2558 
 212   0.0000       0.896193        24.3866 
 213   0.0000       0.900473        24.5031 
 214   0.0000       0.908624        24.7249 
 215   0.0000       0.910754        24.7829 
 216   0.0000       0.916526        24.9399 
 217   0.0000       0.921689        25.0804 
 218   0.0000       0.926402        25.2087 
 219   0.0000       0.929048        25.2807 
 220   0.0000       0.934403        25.4264 
 221   0.0000       0.942421        25.6446 
 222   0.0000       0.947326        25.7780 
 223   0.0000       0.952244        25.9119 
 224   0.0000       0.960870        26.1466 
 225   0.0000       0.964502        26.2454 
 226   0.0000       0.966423        26.2977 
 227   0.0000       0.971973        26.4487 
 228   0.0000       0.978009        26.6130 
 229   0.0000       0.983453        26.7611 
 230   0.0000       0.985475        26.8161 
 231   0.0000       0.990538        26.9539 
 232   0.0000       0.998757        27.1776 
 233   0.0000       1.002914        27.2907 
 234   0.0000       1.007683        27.4204 
 235   0.0000       1.009614        27.4730 
 236   0.0000       1.014631        27.6095 
 237   0.0000       1.017527        27.6883 
 238   0.0000       1.021471        27.7956 
 239   0.0000       1.023923        27.8624 
 240   0.0000       1.032936        28.1076 
 241   0.0000       1.037520        28.2323 
 242   0.0000       1.047804        28.5122 
 243   0.0000       1.050461        28.5845 
 244   0.0000       1.053510        28.6675 
 245   0.0000       1.056835        28.7579 
 246   0.0000       1.060664        28.8621 
 247   0.0000       1.064160        28.9573 
 248   0.0000       1.069448        29.1012 
 249   0.0000       1.074646        29.2426 
 250   0.0000       1.080884        29.4123 
 251   0.0000       1.093343        29.7514 
 252   0.0000       1.095758        29.8171 
 253   0.0000       1.096893        29.8480 
 254   0.0000       1.103410        30.0253 
 255   0.0000       1.108305        30.1585 
 256   0.0000       1.118816        30.4445 
 257   0.0000       1.119685        30.4682 
 258   0.0000       1.125382        30.6232 
 259   0.0000       1.128050        30.6958 
 260   0.0000       1.135713        30.9043 
 261   0.0000       1.141035        31.0491 
 262   0.0000       1.142206        31.0810 
 263   0.0000       1.150482        31.3062 
 264   0.0000       1.156974        31.4829 
 265   0.0000       1.165271        31.7086 
 266   0.0000       1.172472        31.9046 
 267   0.0000       1.176867        32.0242 
 268   0.0000       1.179130        32.0858 
 269   0.0000       1.180444        32.1215 
 270   0.0000       1.192083        32.4382 
 271   0.0000       1.196544        32.5596 
 272   0.0000       1.201387        32.6914 
 273   0.0000       1.209668        32.9167 
 274   0.0000       1.215365        33.0718 
 275   0.0000       1.216214        33.0949 
 276   0.0000       1.219693        33.1895 
 277   0.0000       1.230604        33.4865 
 278   0.0000       1.235536        33.6206 
 279   0.0000       1.239296        33.7230 
 280   0.0000       1.246336        33.9145 
 281   0.0000       1.250906        34.0389 
 282   0.0000       1.257869        34.2283 
 283   0.0000       1.261991        34.3405 
 284   0.0000       1.266914        34.4745 
 285   0.0000       1.273233        34.6464 
 286   0.0000       1.278211        34.7819 
 287   0.0000       1.290045        35.1039 
 288   0.0000       1.294686        35.2302 
 289   0.0000       1.296559        35.2812 
 290   0.0000       1.302208        35.4349 
 291   0.0000       1.304751        35.5041 
 292   0.0000       1.312692        35.7202 
 293   0.0000       1.314930        35.7811 
 294   0.0000       1.317414        35.8487 
 295   0.0000       1.327035        36.1105 
 296   0.0000       1.333844        36.2957 
 297   0.0000       1.344420        36.5835 
 298   0.0000       1.351501        36.7762 
 299   0.0000       1.357249        36.9326 
 300   0.0000       1.359942        37.0059 
 301   0.0000       1.362367        37.0719 
 302   0.0000       1.368589        37.2412 
 303   0.0000       1.370178        37.2844 
 304   0.0000       1.379658        37.5424 
 305   0.0000       1.389299        37.8047 
 306   0.0000       1.394650        37.9504 
 307   0.0000       1.405645        38.2495 
 308   0.0000       1.410829        38.3906 
 309   0.0000       1.420308        38.6486 
 310   0.0000       1.421293        38.6753 
 311   0.0000       1.426317        38.8121 
 312   0.0000       1.436261        39.0826 
 313   0.0000       1.441668        39.2298 
 314   0.0000       1.444817        39.3155 
 315   0.0000       1.462318        39.7917 
 316   0.0000       1.469404        39.9845 
 317   0.0000       1.475178        40.1416 
 318   0.0000       1.481130        40.3036 
 319   0.0000       1.482724        40.3470 
 320   0.0000       1.486938        40.4616 
 321   0.0000       1.496134        40.7119 
 322   0.0000       1.498742        40.7828 
 323   0.0000       1.505880        40.9771 
 324   0.0000       1.513719        41.1904 
 325   0.0000       1.516526        41.2668 
 326   0.0000       1.520741        41.3815 
 327   0.0000       1.526195        41.5299 
 328   0.0000       1.535841        41.7924 
 329   0.0000       1.539761        41.8990 
 330   0.0000       1.548002        42.1233 
 331   0.0000       1.554990        42.3134 
 332   0.0000       1.565349        42.5953 
 333   0.0000       1.568535        42.6820 
 334   0.0000       1.574522        42.8449 
 335   0.0000       1.581425        43.0328 
 336   0.0000       1.585005        43.1302 
 337   0.0000       1.600187        43.5433 
 338   0.0000       1.611099        43.8402 
 339   0.0000       1.617774        44.0219 
 340   0.0000       1.622267        44.1441 
 341   0.0000       1.624813        44.2134 
 342   0.0000       1.638214        44.5781 
 343   0.0000       1.643478        44.7213 
 344   0.0000       1.647654        44.8349 
 345   0.0000       1.658421        45.1279 
 346   0.0000       1.667975        45.3879 
 347   0.0000       1.673851        45.5478 
 348   0.0000       1.677660        45.6515 
 349   0.0000       1.681956        45.7684 
 350   0.0000       1.698028        46.2057 
 351   0.0000       1.700873        46.2831 
 352   0.0000       1.704706        46.3874 
 353   0.0000       1.711264        46.5659 
 354   0.0000       1.724740        46.9326 
 355   0.0000       1.733637        47.1747 
 356   0.0000       1.739634        47.3379 
 357   0.0000       1.746364        47.5210 
 358   0.0000       1.758702        47.8567 
 359   0.0000       1.760644        47.9096 
 360   0.0000       1.763325        47.9825 
 361   0.0000       1.774139        48.2768 
 362   0.0000       1.789567        48.6966 
 363   0.0000       1.794920        48.8423 
 364   0.0000       1.807008        49.1712 
 365   0.0000       1.811398        49.2906 
 366   0.0000       1.815794        49.4103 
 367   0.0000       1.820301        49.5329 
 368   0.0000       1.824411        49.6448 
 369   0.0000       1.844197        50.1831 
 370   0.0000       1.850369        50.3511 
 371   0.0000       1.865422        50.7607 
 372   0.0000       1.867982        50.8304 
 373   0.0000       1.869947        50.8838 
 374   0.0000       1.885673        51.3118 
 375   0.0000       1.892409        51.4951 
 376   0.0000       1.903700        51.8023 
 377   0.0000       1.914086        52.0849 
 378   0.0000       1.917180        52.1691 
 379   0.0000       1.919262        52.2258 
 380   0.0000       1.931012        52.5455 
 381   0.0000       1.937127        52.7119 
 382   0.0000       1.947102        52.9833 
 383   0.0000       1.954879        53.1950 
 384   0.0000       1.958929        53.3052 
 385   0.0000       1.965600        53.4867 
 386   0.0000       1.972492        53.6742 
 387   0.0000       1.981035        53.9067 
 388   0.0000       1.989449        54.1357 
 389   0.0000       1.998168        54.3729 
 390   0.0000       2.013359        54.7863 
 391   0.0000       2.014219        54.8097 
 392   0.0000       2.025009        55.1033 
 393   0.0000       2.034247        55.3547 
 394   0.0000       2.044990        55.6470 
 395   0.0000       2.049536        55.7707 
 396   0.0000       2.052130        55.8413 
 397   0.0000       2.062921        56.1349 
 398   0.0000       2.068849        56.2962 
 399   0.0000       2.082731        56.6740 
 400   0.0000       2.090216        56.8777 
 401   0.0000       2.111799        57.4650 
 402   0.0000       2.122367        57.7525 
 403   0.0000       2.129808        57.9550 
 404   0.0000       2.133022        58.0425 
 405   0.0000       2.142271        58.2942 
 406   0.0000       2.149030        58.4781 
 407   0.0000       2.167100        58.9698 
 408   0.0000       2.178869        59.2900 
 409   0.0000       2.187958        59.5374 
 410   0.0000       2.193104        59.6774 
 411   0.0000       2.214421        60.2575 
 412   0.0000       2.217954        60.3536 
 413   0.0000       2.227781        60.6210 
 414   0.0000       2.247689        61.1627 
 415   0.0000       2.262437        61.5641 
 416   0.0000       2.275607        61.9224 
 417   0.0000       2.296773        62.4984 
 418   0.0000       2.307911        62.8015 
 419   0.0000       2.317231        63.0551 
 420   0.0000       2.326153        63.2978 
 421   0.0000       2.347776        63.8862 
 422   0.0000       2.363715        64.3200 
 423   0.0000       2.377771        64.7024 
 424   0.0000       2.382407        64.8286 
 425   0.0000       2.394655        65.1619 
 426   0.0000       2.411882        65.6307 
 427   0.0000       2.423971        65.9596 
 428   0.0000       2.430635        66.1409 
 429   0.0000       2.440687        66.4145 
 430   0.0000       2.451010        66.6954 
 431   0.0000       2.457781        66.8796 
 432   0.0000       2.468611        67.1743 
 433   0.0000       2.477967        67.4289 
 434   0.0000       2.491628        67.8007 
 435   0.0000       2.501520        68.0698 
 436   0.0000       2.508499        68.2597 
 437   0.0000       2.514839        68.4322 
 438   0.0000       2.519671        68.5637 
 439   0.0000       2.526202        68.7414 
 440   0.0000       2.543269        69.2059 
 441   0.0000       2.548056        69.3361 
 442   0.0000       2.548946        69.3603 
 443   0.0000       2.557128        69.5830 
 444   0.0000       2.562931        69.7409 
 445   0.0000       2.575465        70.0820 
 446   0.0000       2.580955        70.2314 
 447   0.0000       2.584810        70.3363 
 448   0.0000       2.597516        70.6820 
 449   0.0000       2.604487        70.8717 
 450   0.0000       2.611789        71.0704 
 451   0.0000       2.617750        71.2326 
 452   0.0000       2.619048        71.2679 
 453   0.0000       2.631325        71.6020 
 454   0.0000       2.638550        71.7986 
 455   0.0000       2.642867        71.9161 
 456   0.0000       2.653174        72.1965 
 457   0.0000       2.662689        72.4554 
 458   0.0000       2.669771        72.6482 
 459   0.0000       2.676803        72.8395 
 460   0.0000       2.683077        73.0102 
 461   0.0000       2.693608        73.2968 
 462   0.0000       2.704837        73.6023 
 463   0.0000       2.710775        73.7639 
 464   0.0000       2.717616        73.9501 
 465   0.0000       2.728709        74.2520 
 466   0.0000       2.732754        74.3620 
 467   0.0000       2.744950        74.6939 
 468   0.0000       2.751303        74.8668 
 469   0.0000       2.758218        75.0549 
 470   0.0000       2.769923        75.3734 
 471   0.0000       2.774614        75.5011 
 472   0.0000       2.783229        75.7355 
 473   0.0000       2.784775        75.7776 
 474   0.0000       2.798059        76.1391 
 475   0.0000       2.805821        76.3503 
 476   0.0000       2.812310        76.5268 
 477   0.0000       2.814119        76.5761 
 478   0.0000       2.816440        76.6392 
 479   0.0000       2.823465        76.8304 
 480   0.0000       2.837507        77.2125 
 481   0.0000       2.853888        77.6582 
 482   0.0000       2.859181        77.8023 
 483   0.0000       2.869534        78.0840 
 484   0.0000       2.882364        78.4331 
 485   0.0000       2.889209        78.6194 
 486   0.0000       2.892023        78.6960 
 487   0.0000       2.897705        78.8506 
 488   0.0000       2.902112        78.9705 
 489   0.0000       2.914679        79.3124 
 490   0.0000       2.920529        79.4716 
 491   0.0000       2.931541        79.7713 
 492   0.0000       2.942634        80.0731 
 493   0.0000       2.948291        80.2271 
 494   0.0000       2.965190        80.6869 
 495   0.0000       2.976438        80.9930 
 496   0.0000       2.984422        81.2103 
 497   0.0000       2.989848        81.3579 
 498   0.0000       2.996433        81.5371 
 499   0.0000       3.005093        81.7727 
 500   0.0000       3.017757        82.1174 
 501   0.0000       3.026785        82.3630 
 502   0.0000       3.030918        82.4755 
 503   0.0000       3.053686        83.0950 
 504   0.0000       3.066388        83.4406 
 505   0.0000       3.071746        83.5865 
 506   0.0000       3.077454        83.7418 
 507   0.0000       3.089464        84.0686 
 508   0.0000       3.106464        84.5312 
 509   0.0000       3.114294        84.7443 
 510   0.0000       3.122203        84.9595 
 511   0.0000       3.127583        85.1059 
 512   0.0000       3.137148        85.3661 
 513   0.0000       3.155011        85.8522 
 514   0.0000       3.169508        86.2467 
 515   0.0000       3.175216        86.4020 
 516   0.0000       3.179594        86.5212 
 517   0.0000       3.182836        86.6094 
 518   0.0000       3.197765        87.0156 
 519   0.0000       3.201928        87.1289 
 520   0.0000       3.222876        87.6989 
 521   0.0000       3.238221        88.1165 
 522   0.0000       3.244730        88.2936 
 523   0.0000       3.266414        88.8836 
 524   0.0000       3.274615        89.1068 
 525   0.0000       3.287331        89.4528 
 526   0.0000       3.299872        89.7941 
 527   0.0000       3.309252        90.0493 
 528   0.0000       3.327073        90.5343 
 529   0.0000       3.361220        91.4634 
 530   0.0000       3.385870        92.1342 
 531   0.0000       3.395045        92.3839 
 532   0.0000       3.421527        93.1045 
 533   0.0000       3.449464        93.8647 
 534   0.0000       3.552690        96.6736 
 535   0.0000       3.601963        98.0144 
 536   0.0000       3.742692       101.8438 
 537   0.0000       3.863190       105.1227 
 538   0.0000       3.871585       105.3512 
 539   0.0000       3.903986       106.2328 
 540   0.0000       3.906816       106.3099 
 541   0.0000       3.957656       107.6933 
 542   0.0000       3.967421       107.9590 
 543   0.0000       3.994340       108.6915 
 544   0.0000       4.028439       109.6194 
 545   0.0000       4.034327       109.7796 
 546   0.0000       4.063156       110.5641 
 547   0.0000       4.073330       110.8409 
 548   0.0000       4.092064       111.3507 
 549   0.0000       4.113588       111.9364 
 550   0.0000       4.131105       112.4131 
 551   0.0000       4.159721       113.1918 
 552   0.0000       4.165642       113.3529 
 553   0.0000       4.172712       113.5453 
 554   0.0000       4.180076       113.7456 
 555   0.0000       4.194345       114.1339 
 556   0.0000       4.206281       114.4587 
 557   0.0000       4.216224       114.7293 
 558   0.0000       4.217123       114.7537 
 559   0.0000       4.225145       114.9720 
 560   0.0000       4.232899       115.1830 
 561   0.0000       4.247342       115.5761 
 562   0.0000       4.250237       115.6548 
 563   0.0000       4.259514       115.9073 
 564   0.0000       4.272655       116.2649 
 565   0.0000       4.281026       116.4927 
 566   0.0000       4.284078       116.5757 
 567   0.0000       4.292715       116.8107 
 568   0.0000       4.305375       117.1552 
 569   0.0000       4.306744       117.1925 
 570   0.0000       4.312643       117.3530 
 571   0.0000       4.320978       117.5798 
 572   0.0000       4.327381       117.7540 
 573   0.0000       4.336999       118.0157 
 574   0.0000       4.339951       118.0961 
 575   0.0000       4.342918       118.1768 
 576   0.0000       4.352017       118.4244 
 577   0.0000       4.364141       118.7543 
 578   0.0000       4.372823       118.9906 
 579   0.0000       4.382839       119.2631 
 580   0.0000       4.392195       119.5177 
 581   0.0000       4.396166       119.6258 
 582   0.0000       4.404150       119.8430 
 583   0.0000       4.413137       120.0876 
 584   0.0000       4.421047       120.3028 
 585   0.0000       4.427956       120.4908 
 586   0.0000       4.438354       120.7738 
 587   0.0000       4.440874       120.8423 
 588   0.0000       4.446825       121.0043 
 589   0.0000       4.459487       121.3488 
 590   0.0000       4.468156       121.5847 
 591   0.0000       4.475786       121.7923 
 592   0.0000       4.482207       121.9670 
 593   0.0000       4.500511       122.4651 
 594   0.0000       4.509004       122.6962 
 595   0.0000       4.515950       122.8852 
 596   0.0000       4.520989       123.0224 
 597   0.0000       4.523340       123.0863 
 598   0.0000       4.531071       123.2967 
 599   0.0000       4.534478       123.3894 
 600   0.0000       4.545680       123.6942 
 601   0.0000       4.559905       124.0813 
 602   0.0000       4.565531       124.2344 
 603   0.0000       4.569678       124.3473 
 604   0.0000       4.580187       124.6332 
 605   0.0000       4.594293       125.0171 
 606   0.0000       4.603570       125.2695 
 607   0.0000       4.613235       125.5325 
 608   0.0000       4.618114       125.6653 
 609   0.0000       4.624462       125.8380 
 610   0.0000       4.626153       125.8840 
 611   0.0000       4.643590       126.3585 
 612   0.0000       4.650579       126.5487 
 613   0.0000       4.658151       126.7547 
 614   0.0000       4.662222       126.8655 
 615   0.0000       4.669585       127.0659 
 616   0.0000       4.678233       127.3012 
 617   0.0000       4.683981       127.4576 
 618   0.0000       4.691309       127.6570 
 619   0.0000       4.700843       127.9164 
 620   0.0000       4.708378       128.1215 
 621   0.0000       4.710998       128.1928 
 622   0.0000       4.728170       128.6601 
 623   0.0000       4.732800       128.7860 
 624   0.0000       4.742877       129.0603 
 625   0.0000       4.754361       129.3727 
 626   0.0000       4.762465       129.5933 
 627   0.0000       4.768484       129.7570 
 628   0.0000       4.773074       129.8820 
 629   0.0000       4.778459       130.0285 
 630   0.0000       4.802105       130.6719 
 631   0.0000       4.812625       130.9582 
 632   0.0000       4.818033       131.1053 
 633   0.0000       4.822915       131.2382 
 634   0.0000       4.842452       131.7698 
 635   0.0000       4.849849       131.9711 
 636   0.0000       4.862850       132.3249 
 637   0.0000       4.876885       132.7068 
 638   0.0000       4.881845       132.8418 
 639   0.0000       4.894504       133.1862 
 640   0.0000       4.896857       133.2502 
 641   0.0000       4.915155       133.7482 
 642   0.0000       4.918957       133.8516 
 643   0.0000       4.931120       134.1826 
 644   0.0000       4.937011       134.3429 
 645   0.0000       4.948449       134.6542 
 646   0.0000       4.967769       135.1799 
 647   0.0000       4.977951       135.4569 
 648   0.0000       4.987704       135.7223 
 649   0.0000       4.991410       135.8232 
 650   0.0000       5.004132       136.1694 
 651   0.0000       5.033371       136.9650 
 652   0.0000       5.045476       137.2944 
 653   0.0000       5.065487       137.8389 
 654   0.0000       5.068512       137.9212 
 655   0.0000       5.079572       138.2222 
 656   0.0000       5.092058       138.5619 
 657   0.0000       5.109536       139.0375 
 658   0.0000       5.115710       139.2055 
 659   0.0000       5.126314       139.4941 
 660   0.0000       5.130350       139.6039 
 661   0.0000       5.140497       139.8800 
[...]
   TCutMKN   ...     1.0e-03
   TCutDO    ...     5.0e-03
   TCutPairs ...     1.0e-05
   TCutCMO   ...     1.0e-03
   TCutCPAO  ...     1.0e-03

Thresholds for map construction and integral transformation for strong Triples:
   TCutMKN   ...     1.0e-02
   TCutDO    ...     1.0e-02
   TCutCMO   ...     1.0e-03
   TCutCPAO  ...     1.0e-03

Thresholds for map construction and integral transformation for weak Triples:
   TCutMKN   ...     1.0e-01
   TCutDO    ...     2.0e-02
   TCutCMO   ...     1.0e-03
   TCutCPAO  ...     1.0e-03

--------------------------------
LOCAL RI TRANSFORMATION (IAVPAO)
--------------------------------

Orbital window:       1 to 4
Number of PAOs:     851
Basis functions:    851 (297 shells)
Aux. functions:    1828 (518 shells)

Processing maps (0.0 sec)
Average map sizes:
   Aux shells -> MOs               1.9
   Aux shells -> PAOs            414.0
   MOs        -> AO shells       297.0
   PAOs       -> AO shells       197.0

Calculating integrals (2.4 sec, 23.332 MB)
Sorting integrals (0.1 sec, 23.322 MB)
Total time for the integral transformation: 2.6 sec
--------------------------------
INITIAL GUESS AND PNO GENERATION
--------------------------------

PNO truncation parameters                   .... 
    ScaleTCutPNO       =        1.000e-02
    PAOOverlapThresh   =        1.000e-08

    TCutPairs          =        1.000e-05
    TCutPNO            =        1.000e-07
    TCutPNOSingles     =        3.000e-09
    TCutMP2Pairs       =        1.000e-06
    TCutMKN            =        1.000e-03
    TCutDO             =        5.000e-03

Pair selection                          .... not used
Type of local MP2 treatment                 .... full local PMP2
Strategy for PNO selection                  .... occupation number selection
Pair density normalization                  .... MP2 norm
Spin component scaling                      .... not used

PASS-1: Formation of initial guess LMP2 amplitudes
Initial amplitudes guess done. Entering LMP2 iteration loop:
   Max. no of iterations          ...  50
   Energy convergence tolerance   ...    1.0e-07
   Residual convergence tolerance ...    5.0e-07
   Fock matrix cutoff             ...    1.0e-05 Eh
   DIIS convergence acceleration parameters:
        Max # vectors in DIIS     ... 7
        Start iteration of DIIS   ... 0
        Levelshift                ... 2.000e-01
        Damping factor 1          ... 5.000e-01
        Damping factor 2          ... 1.000e+00
   L-MP2 PNO cut-off              ...   1.0e-09
   L-MP2 PNO cut-off (core)       ...   1.0e-11
                           *** Turning on DIIS ***
LMP2-Iter=   0:  ELMP2= -0.238970778631  DE=   3.3e-03 RMAX=   3.3e-03
LMP2-Iter=   1:  ELMP2= -0.240987408349  DE=   2.0e-03 RMAX=   1.2e-03
LMP2-Iter=   2:  ELMP2= -0.241264975864  DE=   2.8e-04 RMAX=   2.1e-04
LMP2-Iter=   3:  ELMP2= -0.241294494866  DE=   3.0e-05 RMAX=   6.9e-05
LMP2-Iter=   4:  ELMP2= -0.241296097836  DE=   1.6e-06 RMAX=   9.0e-06
LMP2-Iter=   5:  ELMP2= -0.241296018763  DE=   7.9e-08 RMAX=   3.1e-06
LMP2-Iter=   6:  ELMP2= -0.241296012150  DE=   6.6e-09 RMAX=   3.1e-07
LMP2-Iter=   7:  ELMP2= -0.241296011156  DE=   9.9e-10 RMAX=   8.7e-08 => CONVERGED
PASS-2: Formation of Pair natural orbitals
   .... Finished loop over pairs

 PNO Occupation Number Statistics: 
  | Av. % of trace(Dij) retained        ...  99.990686972956
  | sigma^2 in % of trace(Dij) retained ...   1.68e-06
  | Av. % of trace(Di) retained         ...  99.999754194723
  | sigma^2 in % of trace(Di) retained  ...   1.37e-09
 Distributions of % trace(Dij) recovered:
  |       >= 99.9  ...    10 (100.0 % of all pairs)
 Distributions of % trace(Di) recovered :
  |       >= 99.9  ...     4 (100.0 % of all I-pairs )

Making pair pair interaction lists          ... done

                       ===========================
                         10 OF   10 PAIRS ARE KEPT
                       ===========================

Total time spent in the initial guess                 ...     3.241 sec
L-MP2 correlation energy (all non-screened pairs)     ...      -0.241296011156 Eh
L-MP2 PNO error correction                            ...      -0.000000555654 Eh
                                                          --------------------
Initial total L-MP2 energy (non-screened pairs)       ...      -0.241296566810 Eh

Initial PNO correlation energy                        ...      -0.241235222563 Eh
sum of pair energies estimated for screened out pairs ...       0.000000000000 Eh
sum of MP2 pair energies for pairs that were not kept ...       0.000000000000 Eh
sum of PNO error estimates for the kept pairs         ...      -0.000061344247 Eh
                                                          --------------------
sum of all corrections                                         -0.000061344247
Initial total correlation energy                               -0.241296566810
Thresholds for map construction and integral transformation for fine MP2 and CCSD(T) calculation:
   TCutMKN   ...     1.0e-03
   TCutDO    ...     5.0e-03
   TCutPairs ...     1.0e-05
   TCutCMO   ...     1.0e-03
   TCutCPAO  ...     1.0e-03

Time for aux screen maps:            0.006
Time for maps after fine MP2:            0.019
-----------------------------
LOCAL RI TRANSFORMATION (IJV)
-----------------------------

Orbital window:       1 to 4
Basis functions:    851 (297 shells)
Aux. functions:    1828 (518 shells)

Processing maps (0.0 sec)
Average map sizes:
   Aux shells -> MOs(i)            1.9
   Aux shells -> MOs(j)            1.9
   MOs        -> AO shells       297.0

Calculating integrals (2.3 sec, 0.120 MB)
Sorting integrals (0.0 sec, 0.110 MB)
Total time for the integral transformation: 2.3 sec
--------------------------------
LOCAL RI TRANSFORMATION (VABPAO)
--------------------------------

Number of PAOs:     851
Basis functions:    851 (297 shells)
Aux. functions:    1828 (518 shells)

Processing maps (0.0 sec)
Average map sizes:
   Aux shells -> PAOs            414.0
   PAOs       -> AO shells       197.0

Calculating integrals (19.4 sec, 9525.491 MB)
Finished


-------------------------------------
Pair Pair Term precalculation with     
RI-(ij|mn) and (im|jn) transformation  
ON THE FLY                             
-------------------------------------

   IBatch   1 (of   1)              ... done (   10.815 sec)
Total EXT                           ...          10.815 sec

---------------------
RI-PNO TRANSFORMATION
---------------------

Total Number of PNOs                   ...   715
Average number of PNOs per pair        ...    71
Maximal number of PNOs per pair        ...    79
   #pairs with  1 -  5 PNOs   :    0
   #pairs with  6 - 10 PNOs   :    0
   #pairs with 11 - 15 PNOs   :    0
   #pairs with 16 - 20 PNOs   :    0
   #pairs with 21 - 25 PNOs   :    0
   #pairs with 26 - 30 PNOs   :    0
   #pairs with 31 - 35 PNOs   :    0
   #pairs with 36 - 40 PNOs   :    0
   #pairs with 41 - 45 PNOs   :    0
   #pairs with 46 - 50 PNOs   :    0
   #pairs with 56 - 60 PNOs   :    1
   #pairs with 61 - 65 PNOs   :    2
   #pairs with 71 - 75 PNOs   :    4
   #pairs with 76 - 80 PNOs   :    3

Generation of (ij|ab)[P] integrals            ... on
Generation of (ia|bc)[P],(ja|bc)[P] integrals ... on
Storage of 3 and 4 external integrals         ... on
Generation of ALL (ka|bc)[P] integrals        ... on
Keep RI integrals in memory                   ... off

Ibatch:  1 (of  1)
Starting 2-4 index PNO integral generation ... done

Timings:
Total PNO integral transformation time     ...         12.114 sec
Size of the 3-external file                ...        29 MB
Size of the 4-external file                ...       271 MB
Size of the IKJL file                      ...         0 MB
Size of the all 3-external file            ...        58 MB
Size of the 1-external file                ...         0 MB

Making pair/pair overlap matrices          ... done (    0.149 sec)
Size of the pair overlap file              ... 5 MB
Redoing the guess amplitudes               ... done (    0.006 sec)

-------------------------
FINAL STARTUP INFORMATION
-------------------------

E(0)                                       ...    -56.220008382
E(L-MP2)                                   ...     -0.241296567
E(L-MP2) including corrections             ...     -0.241296567
Initial E(tot)                             ...    -56.461304949
<T|T>                                      ...      0.062561564
Number of pairs included                   ... 10
Total number of pairs                      ... 10

------------------------------------------------
                  RHF COUPLED CLUSTER ITERATIONS
------------------------------------------------

Number of PNO amplitudes to be optimized   ...        51661
Number of non-PNO amplitudes               ...      7157160
Untruncated number of regular amplitudes   ...      7157160

Iter       E(tot)           E(Corr)          Delta-E          Residual     Time
  0    -56.455620056     -0.235550330      0.005746237      0.011050193    2.22
                           *** Turning on DIIS ***
  1    -56.465617147     -0.245547421     -0.009997092      0.005599776    2.25
  2    -56.471665497     -0.251595770     -0.006048349      0.001792342    2.26
  3    -56.472766881     -0.252697155     -0.001101384      0.000643750    2.26
  4    -56.472984601     -0.252914875     -0.000217720      0.000377848    2.25
  5    -56.473029186     -0.252959460     -0.000044585      0.000201876    2.25
  6    -56.473042917     -0.252973191     -0.000013731      0.000087296    2.25
  7    -56.473044718     -0.252974992     -0.000001801      0.000032007    2.29
  8    -56.473045461     -0.252975735     -0.000000743      0.000011132    2.26
               --- The Coupled-Cluster iterations have converged ---

----------------------
COUPLED CLUSTER ENERGY
----------------------

E(0)                                       ...    -56.220008382
E(CORR)(strong-pairs)                      ...     -0.252975735
E(CORR)(weak-pairs)                        ...     -0.000061344
E(CORR)(corrected)                         ...     -0.253037079
E(TOT)                                     ...    -56.473045461
Singles Norm <S|S>**1/2                    ...      0.023031873  
T1 diagnostic                              ...      0.008142997  

------------------
LARGEST AMPLITUDES
------------------
   3->  5   3->  5       0.034428
   2->  5   2->  5       0.032860
   4->  5   4->  5       0.031387
   3-> 13   3-> 13       0.030262
   2-> 13   2-> 13       0.030025
   3->  5   3-> 13       0.027606
   3-> 13   3->  5       0.027606
   4-> 13   4-> 13       0.027360
   2-> 13   2->  5       0.027002
   2->  5   2-> 13       0.027002
   4->  5   4-> 13       0.025104
   4-> 13   4->  5       0.025104
   1->  6   1->  6       0.024530
   3->  8   3->  8       0.017723
   2->  8   2->  8       0.016996
   4->  8   4->  8       0.016948


-------------------------------------------
DLPNO BASED TRIPLES CORRECTION
-------------------------------------------

Singles multiplier          ...  1.000000
TCutTNO                     ... 1.000e-09
TCutMP2Pairs                ... 1.000e-06
TCutDOStrong                ... 1.000e-02
TCutMKNStrong               ... 1.000e-02
TCutDOWeak                  ... 2.000e-02
TCutMKNWeak                 ... 1.000e-01

Fragment selection                          .... not used
Fock matrix occ-virt block is zero --> Setting DT_in_Triples to false.
Number of Triples that are to be computed   ...        16

 . . . . . . . . .
10% done  
20% done  
30% done  
40% done  
50% done  
60% done  
70% done  
80% done  
90% done               (      5.070 sec)
Triples timings:
Total time for T0               ...     6.183 sec
Total time for Iterative (T)    ...     0.000 sec
Total time of overall (T)       ...     6.845 sec

Triples List generation         ...     0.000 sec
TNO generation                  ...     1.079 sec
Pair density generation         ...     0.001 sec
Look up tables                  ...     0.000 sec
Generating 3-index integrals    ...     4.450 sec
  Make 4-ind.int. from 3-ind.int...     0.198 sec
  Projecting amplitudes (D + S) ...     0.137 sec
  Downprojecting integrals      ...     0.000 sec
  Energy contr. (sum over a,b,c)...     0.065 sec
Fitting ET(->0)                 ...     0.000 sec

Everything after 3-index        ...     0.620 sec

Timing details:
 TNO integrals                  ...     4.637 sec
   Reading 3-index integrals    ...     0.574 sec
   Sorting integrals            ...     0.428 sec
       Sorting integrals 1      ...     0.000 sec
       Sorting integrals 2      ...     0.305 sec
       Sorting integrals 3      ...     0.004 sec
       Sorting integrals 4      ...     0.000 sec
       Sorting integrals 5      ...     0.001 sec
       Sorting integrals 6      ...     0.118 sec
   Calculating local VM**-1/2   ...     0.001 sec
   Orthogonal. integrals        ...     0.003 sec
   Multipl. 3-index integrals   ...     3.630 sec
   All concerning IRIab (w/TNO) ...     0.070 sec

 Calculate W0/W1                ...     0.216 sec
 W 3-ext contribution           ...     0.133 sec
 W 3-int contribution           ...     0.017 sec
 Sorting W                      ...     0.057 sec

 V exchange contribution        ...     0.022 sec

 Timings for Triples without generation
     of 3-index integrals       ...     0.620 sec
       0 weak pairs             ...     0.620 sec
       1 weak pair              ...     0.000 sec
       2 weak pairs             ...     0.000 sec
       3 weak pairs             ...     0.000 sec
  Extra time for extrapolation  ...     0.000 sec

Number of Triples   (0, 1, 2, 3 weak pairs; overall):     16       0       0       0  (    16)
Number of Atoms     (0, 1, 2, 3 weak pairs; overall):   24.5     0.0     0.0     0.0  (    28)
Number of PAOs      (0, 1, 2, 3 weak pairs; overall):  737.4     0.0     0.0     0.0  (   851)
Number of AuxFcns   (0, 1, 2, 3 weak pairs; overall):  238.2     0.0     0.0     0.0  (  1828)
Number of TNOs      (0, 1, 2, 3 weak pairs         ):  113.6     0.0     0.0     0.0
Aver. Number of NTNO, Atoms, PAOs, AuxFcns / Triples:     16   113.6    24.5   737.4   238.2

Triples Correction (T)                     ...     -0.008178516
Final correlation energy                   ...     -0.261215595
E(CCSD)                                    ...    -56.473045461
E(CCSD(T))                                 ...    -56.481223977


Maximum memory used throughout the entire calculation: 773.8 MB


------------------------------------------------------------------------------- 
                                     TIMINGS                                   
------------------------------------------------------------------------------- 


Total execution time                   ...      213.992 sec

Localization of occupied MO's          ...        0.779 sec (  0.4%)
Fock Matrix Formation                  ...      131.563 sec ( 61.5%)
Global overlap, Fock, MKN matrices     ...        0.713 sec (  0.3%)
Differential overlap integrals         ...        0.392 sec (  0.2%)
Organizing maps                        ...        0.061 sec (  0.0%)
RI 3-index integral generations        ...       25.633 sec ( 12.0%)
RI-PNO integral transformation         ...       23.183 sec ( 10.8%)
Initial Guess                          ...        4.206 sec (  2.0%)
DIIS Solver                            ...        0.391 sec (  0.2%)
State Vector Update                    ...        0.002 sec (  0.0%)
Sigma-vector construction              ...       20.137 sec (  9.4%)
  <D|H|D>(0-ext)                       ...        0.020 sec (  0.1% of sigma)
  <D|H|D>(2-ext Fock)                  ...        0.002 sec (  0.0% of sigma)
  <D|H|D>(2-ext)                       ...        1.049 sec (  5.2% of sigma)
  <D|H|D>(4-ext)                       ...        4.526 sec ( 22.5% of sigma)
  <D|H|D>(4-ext-corr)                  ...       12.786 sec ( 63.5% of sigma)
  CCSD doubles correction              ...        0.003 sec (  0.0% of sigma)
  <S|H|S>                              ...        0.092 sec (  0.5% of sigma)
  <S|H|D>(1-ext)                       ...        0.008 sec (  0.0% of sigma)
  <S|H|D>(3-ext)                       ...        0.052 sec (  0.3% of sigma)
  Fock-dressing                        ...        0.701 sec (  3.5% of sigma)
  Singles amplitudes                   ...        0.023 sec (  0.1% of sigma)
  (ik|jl)-dressing                     ...        0.130 sec (  0.6% of sigma)
  (ij|ab),(ia|jb)-dressing             ...        0.513 sec (  2.5% of sigma)
  Pair energies                        ...        0.003 sec (  0.0% of sigma)
Total Time for computing (T)           ...        6.845 sec (  3.2% of ALL)


-------------------------   --------------------
FINAL SINGLE POINT ENERGY       -56.481223977044
-------------------------   --------------------


                            ***************************************
                            *     ORCA property calculations      *
                            ***************************************

                                    ---------------------
                                    Active property flags
                                    ---------------------
   (+) Dipole Moment


------------------------------------------------------------------------------
                       ORCA ELECTRIC PROPERTIES CALCULATION
------------------------------------------------------------------------------

Dipole Moment Calculation                       ... on
Quadrupole Moment Calculation                   ... off
Polarizability Calculation                      ... off
GBWName                                         ... DLPNO_CP46_job5.gbw
Electron density file                           ... DLPNO_CP46_job5.scfp
The origin for moment calculation is the CENTER OF MASS  = (-0.401772,  1.914576  4.423162)

-------------
DIPOLE MOMENT
-------------
                                X             Y             Z
Electronic contribution:     -0.19462      -0.01154      -0.15254
Nuclear contribution   :      0.68115       0.04578       0.55373
                        -----------------------------------------
Total Dipole Moment    :      0.48653       0.03424       0.40119
                        -----------------------------------------
Magnitude (a.u.)       :      0.63154
Magnitude (Debye)      :      1.60524



--------------------
Rotational spectrum 
--------------------
 
Rotational constants in cm-1:     9.942965     9.822735     6.257636 
Rotational constants in MHz : 298082.598554 294478.182283 187599.221003 

 Dipole components along the rotational axes: 
x,y,z [a.u.] :     0.007769     0.000003     0.631489 
x,y,z [Debye]:     0.019748     0.000008     1.605116 

 

Timings for individual modules:

Sum of individual times         ...      850.278 sec (=  14.171 min)
GTO integral calculation        ...        2.021 sec (=   0.034 min)   0.2 %
SCF iterations                  ...      632.615 sec (=  10.544 min)  74.4 %
MDCI module                     ...      215.642 sec (=   3.594 min)  25.4 %

Energy for            dimer from job 1  =   -667.289949240
Energy for         fragment from job 2  =   -610.783175142
Energy for         fragment from job 3  =    -56.480416560
Energy for            ghost from job 4  =   -610.784306543
Energy for            ghost from job 5  =    -56.481223977


Energy for fragment            dimer:   -667.289949240 Eh
Energy for fragment         fragment:   -667.263591702 Eh   16.540 kcal/mol
Energy for fragment            ghost:   -667.265530520 Eh   15.323 kcal/mol

----------------------------
REACTION ENERGIES (kcal/mol)  16.540  15.323 
----------------------------

                             ****ORCA TERMINATED NORMALLY****
TOTAL RUN TIME: 0 days 3 hours 13 minutes 23 seconds 776 msec
