
                                 *****************
                                 * O   R   C   A *
                                 *****************

                                            #,                                       
                                            ###                                      
                                            ####                                     
                                            #####                                    
                                            ######                                   
                                           ########,                                 
                                     ,,################,,,,,                         
                               ,,#################################,,                 
                          ,,##########################################,,             
                       ,#########################################, ''#####,          
                    ,#############################################,,   '####,        
                  ,##################################################,,,,####,       
                ,###########''''           ''''###############################       
              ,#####''   ,,,,##########,,,,          '''####'''          '####       
            ,##' ,,,,###########################,,,                        '##       
           ' ,,###''''                  '''############,,,                           
         ,,##''                                '''############,,,,        ,,,,,,###''
      ,#''                                            '''#######################'''  
     '                                                          ''''####''''         
             ,#######,   #######,   ,#######,      ##                                
            ,#'     '#,  ##    ##  ,#'     '#,    #''#        ######   ,####,        
            ##       ##  ##   ,#'  ##            #'  '#       #        #'  '#        
            ##       ##  #######   ##           ,######,      #####,   #    #        
            '#,     ,#'  ##    ##  '#,     ,#' ,#      #,         ##   #,  ,#        
             '#######'   ##     ##  '#######'  #'      '#     #####' # '####'        



                  #######################################################
                  #                        -***-                        #
                  #          Department of theory and spectroscopy      #
                  #    Directorship and core code : Frank Neese         #
                  #        Max Planck Institute fuer Kohlenforschung    #
                  #                Kaiser Wilhelm Platz 1               #
                  #                 D-45470 Muelheim/Ruhr               #
                  #                      Germany                        #
                  #                                                     #
                  #                  All rights reserved                #
                  #                        -***-                        #
                  #######################################################


                         Program Version 5.0.2 -  RELEASE  -


 With contributions from (in alphabetic order):
   Daniel Aravena         : Magnetic Suceptibility
   Michael Atanasov       : Ab Initio Ligand Field Theory (pilot matlab implementation)
   Alexander A. Auer      : GIAO ZORA, VPT2 properties, NMR spectrum
   Ute Becker             : Parallelization
   Giovanni Bistoni       : ED, misc. LED, open-shell LED, HFLD
   Martin Brehm           : Molecular dynamics
   Dmytro Bykov           : SCF Hessian
   Vijay G. Chilkuri      : MRCI spin determinant printing, contributions to CSF-ICE
   Dipayan Datta          : RHF DLPNO-CCSD density
   Achintya Kumar Dutta   : EOM-CC, STEOM-CC
   Dmitry Ganyushin       : Spin-Orbit,Spin-Spin,Magnetic field MRCI
   Miquel Garcia          : C-PCM and meta-GGA Hessian, CC/C-PCM, Gaussian charge scheme
   Yang Guo               : DLPNO-NEVPT2, F12-NEVPT2, CIM, IAO-localization
   Andreas Hansen         : Spin unrestricted coupled pair/coupled cluster methods
   Benjamin Helmich-Paris : MC-RPA, TRAH-SCF, COSX integrals
   Lee Huntington         : MR-EOM, pCC
   Robert Izsak           : Overlap fitted RIJCOSX, COSX-SCS-MP3, EOM
   Marcus Kettner         : VPT2
   Christian Kollmar      : KDIIS, OOCD, Brueckner-CCSD(T), CCSD density, CASPT2, CASPT2-K
   Simone Kossmann        : Meta GGA functionals, TD-DFT gradient, OOMP2, MP2 Hessian
   Martin Krupicka        : Initial AUTO-CI
   Lucas Lang             : DCDCAS
   Marvin Lechner         : AUTO-CI (C++ implementation), FIC-MRCC
   Dagmar Lenk            : GEPOL surface, SMD
   Dimitrios Liakos       : Extrapolation schemes; Compound Job, initial MDCI parallelization
   Dimitrios Manganas     : Further ROCIS development; embedding schemes
   Dimitrios Pantazis     : SARC Basis sets
   Anastasios Papadopoulos: AUTO-CI, single reference methods and gradients
   Taras Petrenko         : DFT Hessian,TD-DFT gradient, ASA, ECA, R-Raman, ABS, FL, XAS/XES, NRVS
   Peter Pinski           : DLPNO-MP2, DLPNO-MP2 Gradient
   Christoph Reimann      : Effective Core Potentials
   Marius Retegan         : Local ZFS, SOC
   Christoph Riplinger    : Optimizer, TS searches, QM/MM, DLPNO-CCSD(T), (RO)-DLPNO pert. Triples
   Tobias Risthaus        : Range-separated hybrids, TD-DFT gradient, RPA, STAB
   Michael Roemelt        : Original ROCIS implementation
   Masaaki Saitow         : Open-shell DLPNO-CCSD energy and density
   Barbara Sandhoefer     : DKH picture change effects
   Avijit Sen             : IP-ROCIS
   Kantharuban Sivalingam : CASSCF convergence, NEVPT2, FIC-MRCI
   Bernardo de Souza      : ESD, SOC TD-DFT
   Georgi Stoychev        : AutoAux, RI-MP2 NMR, DLPNO-MP2 response
   Willem Van den Heuvel  : Paramagnetic NMR
   Boris Wezisla          : Elementary symmetry handling
   Frank Wennmohs         : Technical directorship


 We gratefully acknowledge several colleagues who have allowed us to
 interface, adapt or use parts of their codes:
   Stefan Grimme, W. Hujo, H. Kruse, P. Pracht,  : VdW corrections, initial TS optimization,
                  C. Bannwarth, S. Ehlert          DFT functionals, gCP, sTDA/sTD-DF
   Ed Valeev, F. Pavosevic, A. Kumar             : LibInt (2-el integral package), F12 methods
   Garnet Chan, S. Sharma, J. Yang, R. Olivares  : DMRG
   Ulf Ekstrom                                   : XCFun DFT Library
   Mihaly Kallay                                 : mrcc  (arbitrary order and MRCC methods)
   Jiri Pittner, Ondrej Demel                    : Mk-CCSD
   Frank Weinhold                                : gennbo (NPA and NBO analysis)
   Christopher J. Cramer and Donald G. Truhlar   : smd solvation model
   Lars Goerigk                                  : TD-DFT with DH, B97 family of functionals
   V. Asgeirsson, H. Jonsson                     : NEB implementation
   FAccTs GmbH                                   : IRC, NEB, NEB-TS, DLPNO-Multilevel, CI-OPT
                                                   MM, QMMM, 2- and 3-layer-ONIOM, Crystal-QMMM,
                                                   LR-CPCM, SF, NACMEs, symmetry and pop. for TD-DFT,
                                                   nearIR, NL-DFT gradient (VV10), updates on ESD,
                                                   ML-optimized integration grids
   S Lehtola, MJT Oliveira, MAL Marques          : LibXC Library
   Liviu Ungur et al                             : ANISO software


 Your calculation uses the libint2 library for the computation of 2-el integrals
 For citations please refer to: http://libint.valeyev.net

 Your ORCA version has been built with support for libXC version: 5.1.0
 For citations please refer to: https://tddft.org/programs/libxc/

 This ORCA versions uses:
   CBLAS   interface :  Fast vector & matrix operations
   LAPACKE interface :  Fast linear algebra routines
   SCALAPACK package :  Parallel linear algebra routines
   Shared memory     :  Shared parallel matrices
   BLAS/LAPACK       :  OpenBLAS 0.3.15  USE64BITINT DYNAMIC_ARCH NO_AFFINITY Haswell SINGLE_THREADED
        Core in use  :  Haswell
   Copyright (c) 2011-2014, The OpenBLAS Project




***************************************
The coordinates will be read from file: opt_full.xyz
***************************************


Your calculation utilizes the semiempirical GFN2-xTB method
Please cite in your paper:
C. Bannwarth, Ehlert S., S. Grimme,  J. Chem. Theory Comput., 15, (2019), 1652.
   

Preparing ONIOM calculation             ...         done
================================================================================

================================================================================
                                        WARNINGS
                       Please study these warnings very carefully!
================================================================================

WARNING: Gradients needed for Numerical Frequencies
  ===> : Setting RunTyp to EnGrad

WARNING: Found dipole moment calculation with XTB calculation
  ===> : Switching off dipole moment calculation


WARNING: TRAH-SCF for XTB is not implemented!
  ===> : Turning TRAH off!

================================================================================
                                       INPUT FILE
================================================================================
NAME = oniom.inp
|  1> !QM/XTB2 XTB2
|  2> !NumFreq
|  3> %pal
|  4> nprocs 28
|  5> end
|  6> %qmmm
|  7> QMAtoms {45 46 47 108 109 110 177 178 179 264 265 266 321 322 323 324 325 326 363 364 365 390 391 392 471 472 473 600 601 602 } end 
|  8> ActiveAtoms {45 46 47 108 109 110 177 178 179 264 265 266 321 322 323 324 325 326 363 364 365 390 391 392 471 472 473 600 601 602 } end 
|  9> ExtendActiveRegion no
| 10> end
| 11> *xyzfile 0 1 opt_full.xyz 
| 12> 
| 13> 
| 14>                          ****END OF INPUT****
================================================================================

------------------------------------------------------------------------------

                             **************************
                             *    2-layered ONIOM     *
                             **************************


------------------------------------------------------------------------------




Multiscale model                       ... QM1/QM2
QM2 method                             ... XTB2
Coupling Scheme                        ... subtractive
Embedding Scheme                       ... electrostatic
PrintLevel                             ... 1
Method for determining QM2 charges     ... Hirshfeld
Charge of total system                 ... 0
Charge alteration scheme               ... Charge shifting
Scaling factor for CS scheme           ... 0.06
Gradient projection scheme             ... Lever rule
Scaling factor for QM2 charges         ... 1.00
AutoFF method                          ... XTB2
AutoFF boundary                        ... no covalent bonds
Point charges in QM calc. from MM atoms... 573
              from charge shift scheme ... 0
Printing trajectories, xyz and allxyz files:
        QMMMRegion                     ... YES
        activeRegion                   ... YES
        activeRegionExt                ... NO
        qmRegion                       ... YES
        qm2Region                      ... NO
Parameter files:
        ORCA Forcefield Filename       ... oniom_L_QM2.ORCAFF.prms.tmp
        QM-LA bond distances Filename  ... oniom.H_DIST.prms.tmp
Forcefield type                        ... ORCA
Size of different subsystems (in atoms):
Size of QMMM System                    ... 603
Size of QM2 Subsystem                  ... 573
Size of QM1 Subsystem                  ... 30
Number of link atoms                   ... 0
Size of QM1 Subsystem plus link atoms  ... 30
Size of region for optimizer           ... 30
        optimized atoms = activeRegion ... 30
        fixed atoms (none)             ... 0
Composition of different systems (atoms start counting at 0):
QM1 Subsystem                          ...  45  46  47 108 109 110 177 178 179 264 
                                           265 266 321 322 323 324 325 326 363 364 
                                           365 390 391 392 471 472 473 600 601 602 
Active atoms                           ...  45  46  47 108 109 110 177 178 179 264 
                                           265 266 321 322 323 324 325 326 363 364 
                                           365 390 391 392 471 472 473 600 601 602 

                     *******************************
                     * Energy+Gradient Calculation *
                     *******************************

                    ************************************                      
                    *       QM/   XTB2 SP Energy       *                      
                    ************************************                      


------------------------------------------------------------------------------
                          XTB2 - FULL SYSTEM                         
------------------------------------------------------------------------------
Running XTB calculation
---------------------------------   --------------------
FINAL SINGLE POINT ENERGY (L-QM2)    -1023.447125451120
---------------------------------   --------------------
------------------------------------------------------------------------------
                                  XTB2 - SMALL SYSTEM                         
------------------------------------------------------------------------------
Running XTB calculation
---------------------------------   --------------------
FINAL SINGLE POINT ENERGY (S-QM2)      -50.916854783410
---------------------------------   --------------------
------------------------------------------------------------------------------
                                QM - SMALL SYSTEM                           
------------------------------------------------------------------------------
      -----------------------------------------------------------      
     |                   =====================                   |     
     |                           x T B                           |     
     |                   =====================                   |     
     |                         S. Grimme                         |     
     |          Mulliken Center for Theoretical Chemistry        |     
     |                    University of Bonn                     |     
      -----------------------------------------------------------      

   * xtb version 6.4.0 (d4b70c2) compiled by 'ehlert@majestix' on 2021-02-01

   xtb is free software: you can redistribute it and/or modify it under
   the terms of the GNU Lesser General Public License as published by
   the Free Software Foundation, either version 3 of the License, or
   (at your option) any later version.
   
   xtb is distributed in the hope that it will be useful,
   but WITHOUT ANY WARRANTY; without even the implied warranty of
   MERCHANTABILITY or FITNESS FOR A PARTICULAR PURPOSE.  See the
   GNU Lesser General Public License for more details.
   
   Cite this work as:
   * C. Bannwarth, E. Caldeweyher, S. Ehlert, A. Hansen, P. Pracht,
     J. Seibert, S. Spicher, S. Grimme, WIREs Comput. Mol. Sci., 2020,
     e01493. DOI: 10.1002/wcms.1493
   
   for GFN2-xTB:
   * C. Bannwarth, S. Ehlert and S. Grimme., J. Chem. Theory Comput., 2019,
     15, 1652-1671. DOI: 10.1021/acs.jctc.8b01176
   for GFN1-xTB:
   * S. Grimme, C. Bannwarth, P. Shushkov, J. Chem. Theory Comput., 2017,
     13, 1989-2009. DOI: 10.1021/acs.jctc.7b00118
   for GFN0-xTB:
   * P. Pracht, E. Caldeweyher, S. Ehlert, S. Grimme, ChemRxiv, 2019, preprint.
     DOI: 10.26434/chemrxiv.8326202.v1
   for GFN-FF:
   * S. Spicher and S. Grimme, Angew. Chem. Int. Ed., 2020, 59, 15665-15673.
     DOI: 10.1002/anie.202004239
   
   for DFT-D4:
   * E. Caldeweyher, C. Bannwarth and S. Grimme, J. Chem. Phys., 2017,
     147, 034112. DOI: 10.1063/1.4993215
   * E. Caldeweyher, S. Ehlert, A. Hansen, H. Neugebauer, S. Spicher,
     C. Bannwarth and S. Grimme, J. Chem. Phys., 2019, 150, 154122.
     DOI: 10.1063/1.5090222
   * E. Caldeweyher, J.-M. Mewes, S. Ehlert and S. Grimme, Phys. Chem. Chem. Phys.
     2020, 22, 8499-8512. DOI: 10.1039/D0CP00502A
   
   for sTDA-xTB:
   * S. Grimme and C. Bannwarth, J. Chem. Phys., 2016, 145, 054103.
     DOI: 10.1063/1.4959605
   
   in the mass-spec context:
   * V. Asgeirsson, C. Bauer and S. Grimme, Chem. Sci., 2017, 8, 4879.
     DOI: 10.1039/c7sc00601b
   * J. Koopman and S. Grimme, ACS Omega 2019, 4, 12, 15120-15133.
     DOI: 10.1021/acsomega.9b02011
   
   for metadynamics refer to:
   * S. Grimme, J. Chem. Theory Comput., 2019, 155, 2847-2862
     DOI: 10.1021/acs.jctc.9b00143
   
   with help from (in alphabetical order)
   P. Atkinson, C. Bannwarth, F. Bohle, G. Brandenburg, E. Caldeweyher
   M. Checinski, S. Dohm, S. Ehlert, S. Ehrlich, I. Gerasimov, J. Koopman
   C. Lavinge, S. Lehtola, F. März, M. Müller, F. Musil, H. Neugebauer
   J. Pisarek, P. Pracht, J. Seibert, P. Shushkov, S. Spicher, M. Stahn
   T. Strunk, J. Stückrath, T. Rose, and J. Unsleber
   
 * started run on 2022/04/11 at 10:11:45.388     

           -------------------------------------------------
          |                Calculation Setup                |
           -------------------------------------------------

          program call               : /work/spantaleone/apps/orca/ORCA_5.0.2/otool_xtb oniom_XTB.xyz --grad -c 0 -u 0 -P 28 --namespace oniom --input oniom_XTB.input.tmp --acc 1.000000
          hostname                   : n3662
          calculation namespace      : oniom
          coordinate file            : oniom_XTB.xyz
          omp threads                :                    28
          number of atoms            :                    30
          number of electrons        :                    80
          charge                     :                     0
          spin                       :                   0.0
          first test random number   :      0.21138957653572

   ID    Z sym.   atoms
    1    1 H      1, 3, 4, 6, 7, 9, 10, 12, 13, 15, 16, 18, 19, 21, 22, 24,
                  25, 27, 29, 30
    2    8 O      2, 5, 8, 11, 14, 17, 20, 23, 26, 28

molecular fragmentation (1/2 indicates fragments):
111222222222222222222222222222
# atoms in fragment 1/2:     3    27
 fragment masses (1/2) :       18.02      162.14
CMA distance (Bohr)    :   8.410
constraining FC (au)   :  0.0500
########################################################################
[WARNING] Please study the warnings concerning your input carefully
-1- prog_main_parseArguments: Process number higher than OMP_NUM_THREADS, I hope you know what you are doing.
########################################################################

           -------------------------------------------------
          |                 G F N 2 - x T B                 |
           -------------------------------------------------

        Reference                      10.1021/acs.jctc.8b01176
      * Hamiltonian:
        H0-scaling (s, p, d)           1.850000    2.230000    2.230000
        zeta-weighting                 0.500000
      * Dispersion:
        s8                             2.700000
        a1                             0.520000
        a2                             5.000000
        s9                             5.000000
      * Repulsion:
        kExp                           1.500000    1.000000
        rExp                           1.000000
      * Coulomb:
        alpha                          2.000000
        third order                    shell-resolved
        anisotropic                    true
        a3                             3.000000
        a5                             4.000000
        cn-shift                       1.200000
        cn-exp                         4.000000
        max-rad                        5.000000


          ...................................................
          :                      SETUP                      :
          :.................................................:
          :  # basis functions                  60          :
          :  # atomic orbitals                  60          :
          :  # shells                           40          :
          :  # electrons                        80          :
          :  max. iterations                   250          :
          :  Hamiltonian                  GFN2-xTB          :
          :  restarted?                      false          :
          :  GBSA solvation                  false          :
          :  PC potential                     true          :
          :  -> # point charges                573          :
          :  -> sum of PC                0.0000016     e    :
          :  electronic temp.          300.0000000     K    :
          :  accuracy                    1.0000000          :
          :  -> integral cutoff          0.2500000E+02      :
          :  -> integral neglect         0.1000000E-07      :
          :  -> SCF convergence          0.1000000E-05 Eh   :
          :  -> wf. convergence          0.1000000E-03 e    :
          :  Broyden damping             0.4000000          :
          ...................................................

 iter      E             dE          RMSdq      gap      omega  full diag
   1    -51.1935321 -0.511935E+02  0.415E+00   10.63       0.0  T
   2    -51.2093089 -0.157768E-01  0.239E+00   10.82       1.0  T
   3    -51.2122920 -0.298305E-02  0.387E-01   10.43       1.0  T
   4    -51.2129829 -0.690859E-03  0.903E-02   10.55       1.0  T
   5    -51.2130351 -0.522773E-04  0.348E-02   10.52       1.0  T
   6    -51.2130400 -0.483324E-05  0.478E-03   10.53       3.8  T
   7    -51.2130401 -0.982816E-07  0.134E-03   10.53      13.6  T
   8    -51.2130401 -0.203516E-08  0.872E-04   10.53      20.9  T
   9    -51.2130401 -0.455428E-08  0.770E-05   10.53     237.2  T

   *** convergence criteria satisfied after 9 iterations ***

         #    Occupation            Energy/Eh            Energy/eV
      -------------------------------------------------------------
         1        2.0000           -0.7024628             -19.1150
       ...           ...                  ...                  ...
        34        2.0000           -0.4613880             -12.5550
        35        2.0000           -0.4607232             -12.5369
        36        2.0000           -0.4601834             -12.5222
        37        2.0000           -0.4515529             -12.2874
        38        2.0000           -0.4481623             -12.1951
        39        2.0000           -0.4477685             -12.1844
        40        2.0000           -0.4341303             -11.8133 (HOMO)
        41                         -0.0470609              -1.2806 (LUMO)
        42                          0.0034275               0.0933
        43                          0.0421565               1.1471
        44                          0.0530066               1.4424
        45                          0.0677834               1.8445
       ...                                ...                  ...
        60                          0.3277297               8.9180
      -------------------------------------------------------------
                  HL-Gap            0.3870694 Eh           10.5327 eV
             Fermi-level           -0.2405956 Eh           -6.5469 eV

 SCC (total)                   0 d,  0 h,  0 min,  0.016 sec
 SCC setup                      ...        0 min,  0.000 sec (  2.725%)
 Dispersion                     ...        0 min,  0.000 sec (  1.515%)
 classical contributions        ...        0 min,  0.000 sec (  0.913%)
 integral evaluation            ...        0 min,  0.003 sec ( 15.432%)
 iterations                     ...        0 min,  0.009 sec ( 57.302%)
 molecular gradient             ...        0 min,  0.003 sec ( 19.942%)
 printout                       ...        0 min,  0.000 sec (  0.926%)

         :::::::::::::::::::::::::::::::::::::::::::::::::::::
         ::                     SUMMARY                     ::
         :::::::::::::::::::::::::::::::::::::::::::::::::::::
         :: total energy             -50.916854783408 Eh    ::
         :: gradient norm              0.047215885659 Eh/a0 ::
         :: HOMO-LUMO gap             10.532693821270 eV    ::
         ::.................................................::
         :: SCC energy               -51.213040069170 Eh    ::
         :: -> isotropic ES            0.358298317151 Eh    ::
         :: -> anisotropic ES         -0.042940939503 Eh    ::
         :: -> anisotropic XC         -0.004782693953 Eh    ::
         :: -> dispersion             -0.014668808988 Eh    ::
         :: repulsion energy           0.295826040275 Eh    ::
         :: add. restraining           0.000000000000 Eh    ::
         :: total charge               0.000000000000 e     ::
         :::::::::::::::::::::::::::::::::::::::::::::::::::::


Property printout bound to 'properties.out'

           -------------------------------------------------
          | TOTAL ENERGY              -50.916854783408 Eh   |
          | GRADIENT NORM               0.047215885659 Eh/α |
          | HOMO-LUMO GAP              10.532693821270 eV   |
           -------------------------------------------------

------------------------------------------------------------------------
 * finished run on 2022/04/11 at 10:11:45.490     
------------------------------------------------------------------------
 total:
 * wall-time:     0 d,  0 h,  0 min,  0.101 sec
 *  cpu-time:     0 d,  0 h,  0 min,  2.430 sec
 * ratio c/w:    24.041 speedup
 SCF:
 * wall-time:     0 d,  0 h,  0 min,  0.022 sec
 *  cpu-time:     0 d,  0 h,  0 min,  0.598 sec
 * ratio c/w:    27.569 speedup


-------------------------   --------------------
FINAL SINGLE POINT ENERGY       -50.916854783410
-------------------------   --------------------



--------------------------------------   --------------------
FINAL SINGLE POINT ENERGY (QM/QM2)    -1023.447125451120
--------------------------------------   --------------------

                    ************************************                      
                    *QM/   XTB2 SP Gradient Calculation*                      
                    ************************************                      


------------------------------------------------------------------------------
                          XTB2 - FULL SYSTEM                         
------------------------------------------------------------------------------
Reading gradient                        ...         done
------------------------------------------------------------------------------
                                  XTB2 - SMALL SYSTEM                         
------------------------------------------------------------------------------
Reading gradient                        ...         done
------------------------------------------------------------------------------
                                     QM                                       
------------------------------------------------------------------------------


------------------
CARTESIAN GRADIENT (QM/MM)
------------------
   1   H   :    0.000002014    0.000001411   -0.000005040
   2   O   :    0.000002419    0.000000774   -0.000000963
   3   H   :   -0.000000469    0.000001685   -0.000001549
   4   H   :    0.000001854    0.000003122    0.000000884
   5   O   :   -0.000001722   -0.000005163    0.000002205
   6   H   :    0.000002517   -0.000000607    0.000002433
   7   H   :    0.000002943   -0.000000895   -0.000000341
   8   O   :    0.000003925   -0.000002309    0.000003307
   9   H   :   -0.000006798   -0.000000979   -0.000000918
  10   H   :    0.000004569    0.000006158    0.000000152
  11   O   :    0.000004898   -0.000001552   -0.000003594
  12   H   :    0.000001868   -0.000001934   -0.000005604
  13   H   :   -0.000004891    0.000000247   -0.000000650
  14   O   :   -0.000000087    0.000000732    0.000000186
  15   H   :    0.000001288    0.000002477   -0.000001918
  16   H   :   -0.000001245   -0.000001582   -0.000000676
  17   O   :   -0.000002783    0.000000528    0.000001306
  18   H   :   -0.000002002    0.000004163    0.000002154
  19   H   :   -0.000001524    0.000002107   -0.000001571
  20   O   :   -0.000005993   -0.000003122    0.000000629
  21   H   :   -0.000003934    0.000000985   -0.000002898
  22   H   :   -0.000002658    0.000000023   -0.000002059
  23   O   :   -0.000001482   -0.000002499   -0.000000446
  24   H   :    0.000000121   -0.000002780   -0.000003679
  25   H   :    0.000005033    0.000000558   -0.000001970
  26   O   :    0.000000961   -0.000004241   -0.000000844
  27   H   :   -0.000004722   -0.000000202    0.000000633
  28   O   :   -0.000000161   -0.000001465   -0.000004660
  29   H   :   -0.000006768    0.000003452   -0.000004570
  30   H   :   -0.000000278    0.000001486   -0.000003358

Norm of the cartesian gradient     ...    0.000026784
RMS gradient                       ...    0.000002823
MAX gradient                       ...    0.000006798

----------------------------------------------------------------------------
                           ORCA NUMERICAL FREQUENCIES
                              (28-process run)
----------------------------------------------------------------------------

Number of atoms                ... 30
Central differences            ... used
Number of displacements        ... 180
Numerical increment            ... 5.000e-03 bohr
IR-spectrum generation         ... on
Raman-spectrum generation      ... off
Surface Crossing Hessian       ... off

The output will be reduced. Please look at the following files:
SCF program output             ... >oniom.lastscf
Integral program output        ... >oniom.lastint
Gradient program output        ... >oniom.lastgrad
Dipole moment program output   ... >oniom.lastmom
AutoCI program output          ... >oniom.lastautoci

List of participating nodes    ...  oniom.hostnames
	<< Calculating on displaced geometry  26 (of 180) >>
	<< Calculating on displaced geometry  12 (of 180) >>
	<< Calculating on displaced geometry  22 (of 180) >>
	<< Calculating on displaced geometry  20 (of 180) >>
	<< Calculating on displaced geometry  23 (of 180) >>
	<< Calculating on displaced geometry  18 (of 180) >>
	<< Calculating on displaced geometry  14 (of 180) >>
	<< Calculating on displaced geometry   9 (of 180) >>
	<< Calculating on displaced geometry  10 (of 180) >>
	<< Calculating on displaced geometry   2 (of 180) >>
	<< Calculating on displaced geometry  25 (of 180) >>
	<< Calculating on displaced geometry  24 (of 180) >>
	<< Calculating on displaced geometry  13 (of 180) >>
	<< Calculating on displaced geometry   8 (of 180) >>
	<< Calculating on displaced geometry   7 (of 180) >>
	<< Calculating on displaced geometry  17 (of 180) >>
	<< Calculating on displaced geometry  21 (of 180) >>
	<< Calculating on displaced geometry   1 (of 180) >>
	<< Calculating on displaced geometry   3 (of 180) >>
	<< Calculating on displaced geometry   4 (of 180) >>
	<< Calculating on displaced geometry   5 (of 180) >>
	<< Calculating on displaced geometry  11 (of 180) >>
	<< Calculating on displaced geometry  16 (of 180) >>
	<< Calculating on displaced geometry  28 (of 180) >>
	<< Calculating on displaced geometry  15 (of 180) >>
	<< Calculating on displaced geometry  27 (of 180) >>
	<< Calculating on displaced geometry  19 (of 180) >>
	<< Calculating on displaced geometry   6 (of 180) >>
	<< Calculating on displaced geometry  29 (of 180) >>
	<< Calculating on displaced geometry  30 (of 180) >>
	<< Calculating on displaced geometry  32 (of 180) >>
	<< Calculating on displaced geometry  31 (of 180) >>
	<< Calculating on displaced geometry  35 (of 180) >>
	<< Calculating on displaced geometry  33 (of 180) >>
	<< Calculating on displaced geometry  34 (of 180) >>
	<< Calculating on displaced geometry  37 (of 180) >>
	<< Calculating on displaced geometry  38 (of 180) >>
	<< Calculating on displaced geometry  41 (of 180) >>
	<< Calculating on displaced geometry  39 (of 180) >>
	<< Calculating on displaced geometry  40 (of 180) >>
	<< Calculating on displaced geometry  42 (of 180) >>
	<< Calculating on displaced geometry  36 (of 180) >>
	<< Calculating on displaced geometry  43 (of 180) >>
	<< Calculating on displaced geometry  44 (of 180) >>
	<< Calculating on displaced geometry  47 (of 180) >>
	<< Calculating on displaced geometry  45 (of 180) >>
	<< Calculating on displaced geometry  46 (of 180) >>
	<< Calculating on displaced geometry  50 (of 180) >>
	<< Calculating on displaced geometry  52 (of 180) >>
	<< Calculating on displaced geometry  49 (of 180) >>
	<< Calculating on displaced geometry  48 (of 180) >>
	<< Calculating on displaced geometry  53 (of 180) >>
	<< Calculating on displaced geometry  51 (of 180) >>
	<< Calculating on displaced geometry  54 (of 180) >>
	<< Calculating on displaced geometry  56 (of 180) >>
	<< Calculating on displaced geometry  55 (of 180) >>
	<< Calculating on displaced geometry  57 (of 180) >>
	<< Calculating on displaced geometry  58 (of 180) >>
	<< Calculating on displaced geometry  59 (of 180) >>
	<< Calculating on displaced geometry  60 (of 180) >>
	<< Calculating on displaced geometry  62 (of 180) >>
	<< Calculating on displaced geometry  63 (of 180) >>
	<< Calculating on displaced geometry  61 (of 180) >>
	<< Calculating on displaced geometry  65 (of 180) >>
	<< Calculating on displaced geometry  64 (of 180) >>
	<< Calculating on displaced geometry  66 (of 180) >>
	<< Calculating on displaced geometry  68 (of 180) >>
	<< Calculating on displaced geometry  69 (of 180) >>
	<< Calculating on displaced geometry  67 (of 180) >>
	<< Calculating on displaced geometry  71 (of 180) >>
	<< Calculating on displaced geometry  70 (of 180) >>
	<< Calculating on displaced geometry  72 (of 180) >>
	<< Calculating on displaced geometry  74 (of 180) >>
	<< Calculating on displaced geometry  77 (of 180) >>
	<< Calculating on displaced geometry  79 (of 180) >>
	<< Calculating on displaced geometry  75 (of 180) >>
	<< Calculating on displaced geometry  78 (of 180) >>
	<< Calculating on displaced geometry  73 (of 180) >>
	<< Calculating on displaced geometry  80 (of 180) >>
	<< Calculating on displaced geometry  81 (of 180) >>
	<< Calculating on displaced geometry  76 (of 180) >>
	<< Calculating on displaced geometry  82 (of 180) >>
	<< Calculating on displaced geometry  84 (of 180) >>
	<< Calculating on displaced geometry  83 (of 180) >>
	<< Calculating on displaced geometry  86 (of 180) >>
	<< Calculating on displaced geometry  85 (of 180) >>
	<< Calculating on displaced geometry  87 (of 180) >>
	<< Calculating on displaced geometry  88 (of 180) >>
	<< Calculating on displaced geometry  89 (of 180) >>
	<< Calculating on displaced geometry  90 (of 180) >>
	<< Calculating on displaced geometry  91 (of 180) >>
	<< Calculating on displaced geometry  92 (of 180) >>
	<< Calculating on displaced geometry  93 (of 180) >>
	<< Calculating on displaced geometry  94 (of 180) >>
	<< Calculating on displaced geometry  95 (of 180) >>
	<< Calculating on displaced geometry  96 (of 180) >>
	<< Calculating on displaced geometry 100 (of 180) >>
	<< Calculating on displaced geometry  98 (of 180) >>
	<< Calculating on displaced geometry  97 (of 180) >>
	<< Calculating on displaced geometry 101 (of 180) >>
	<< Calculating on displaced geometry 105 (of 180) >>
	<< Calculating on displaced geometry 102 (of 180) >>
	<< Calculating on displaced geometry 103 (of 180) >>
	<< Calculating on displaced geometry 104 (of 180) >>
	<< Calculating on displaced geometry 108 (of 180) >>
	<< Calculating on displaced geometry 107 (of 180) >>
	<< Calculating on displaced geometry 106 (of 180) >>
	<< Calculating on displaced geometry  99 (of 180) >>
	<< Calculating on displaced geometry 109 (of 180) >>
	<< Calculating on displaced geometry 112 (of 180) >>
	<< Calculating on displaced geometry 110 (of 180) >>
	<< Calculating on displaced geometry 111 (of 180) >>
	<< Calculating on displaced geometry 113 (of 180) >>
	<< Calculating on displaced geometry 114 (of 180) >>
	<< Calculating on displaced geometry 116 (of 180) >>
	<< Calculating on displaced geometry 115 (of 180) >>
	<< Calculating on displaced geometry 117 (of 180) >>
	<< Calculating on displaced geometry 118 (of 180) >>
	<< Calculating on displaced geometry 119 (of 180) >>
	<< Calculating on displaced geometry 120 (of 180) >>
	<< Calculating on displaced geometry 121 (of 180) >>
	<< Calculating on displaced geometry 122 (of 180) >>
	<< Calculating on displaced geometry 123 (of 180) >>
	<< Calculating on displaced geometry 124 (of 180) >>
	<< Calculating on displaced geometry 125 (of 180) >>
	<< Calculating on displaced geometry 126 (of 180) >>
	<< Calculating on displaced geometry 128 (of 180) >>
	<< Calculating on displaced geometry 127 (of 180) >>
	<< Calculating on displaced geometry 131 (of 180) >>
	<< Calculating on displaced geometry 132 (of 180) >>
	<< Calculating on displaced geometry 133 (of 180) >>
	<< Calculating on displaced geometry 130 (of 180) >>
	<< Calculating on displaced geometry 129 (of 180) >>
	<< Calculating on displaced geometry 134 (of 180) >>
	<< Calculating on displaced geometry 135 (of 180) >>
	<< Calculating on displaced geometry 137 (of 180) >>
	<< Calculating on displaced geometry 139 (of 180) >>
	<< Calculating on displaced geometry 138 (of 180) >>
	<< Calculating on displaced geometry 136 (of 180) >>
	<< Calculating on displaced geometry 140 (of 180) >>
	<< Calculating on displaced geometry 141 (of 180) >>
	<< Calculating on displaced geometry 142 (of 180) >>
	<< Calculating on displaced geometry 143 (of 180) >>
	<< Calculating on displaced geometry 144 (of 180) >>
	<< Calculating on displaced geometry 145 (of 180) >>
	<< Calculating on displaced geometry 146 (of 180) >>
	<< Calculating on displaced geometry 147 (of 180) >>
	<< Calculating on displaced geometry 148 (of 180) >>
	<< Calculating on displaced geometry 149 (of 180) >>
	<< Calculating on displaced geometry 150 (of 180) >>
	<< Calculating on displaced geometry 152 (of 180) >>
	<< Calculating on displaced geometry 151 (of 180) >>
	<< Calculating on displaced geometry 153 (of 180) >>
	<< Calculating on displaced geometry 154 (of 180) >>
	<< Calculating on displaced geometry 155 (of 180) >>
	<< Calculating on displaced geometry 157 (of 180) >>
	<< Calculating on displaced geometry 159 (of 180) >>
	<< Calculating on displaced geometry 156 (of 180) >>
	<< Calculating on displaced geometry 158 (of 180) >>
	<< Calculating on displaced geometry 163 (of 180) >>
	<< Calculating on displaced geometry 164 (of 180) >>
	<< Calculating on displaced geometry 161 (of 180) >>
	<< Calculating on displaced geometry 165 (of 180) >>
	<< Calculating on displaced geometry 162 (of 180) >>
	<< Calculating on displaced geometry 160 (of 180) >>
	<< Calculating on displaced geometry 166 (of 180) >>
	<< Calculating on displaced geometry 168 (of 180) >>
	<< Calculating on displaced geometry 167 (of 180) >>
	<< Calculating on displaced geometry 169 (of 180) >>
	<< Calculating on displaced geometry 170 (of 180) >>
	<< Calculating on displaced geometry 171 (of 180) >>
	<< Calculating on displaced geometry 172 (of 180) >>
	<< Calculating on displaced geometry 173 (of 180) >>
	<< Calculating on displaced geometry 174 (of 180) >>
	<< Calculating on displaced geometry 175 (of 180) >>
	<< Calculating on displaced geometry 176 (of 180) >>
	<< Calculating on displaced geometry 177 (of 180) >>
	<< Calculating on displaced geometry 178 (of 180) >>
	<< Calculating on displaced geometry 179 (of 180) >>
	<< Calculating on displaced geometry 180 (of 180) >>

-----------------------
VIBRATIONAL FREQUENCIES
-----------------------

Scaling factor for frequencies =  1.000000000 (already applied!)

   0:         0.00 cm**-1
   1:         0.00 cm**-1
   2:         0.00 cm**-1
   3:         0.00 cm**-1
   4:         0.00 cm**-1
   5:         0.00 cm**-1
   6:        64.16 cm**-1
   7:        79.62 cm**-1
   8:        88.23 cm**-1
   9:       104.83 cm**-1
  10:       112.12 cm**-1
  11:       126.11 cm**-1
  12:       137.60 cm**-1
  13:       149.10 cm**-1
  14:       165.42 cm**-1
  15:       170.77 cm**-1
  16:       186.51 cm**-1
  17:       190.43 cm**-1
  18:       202.19 cm**-1
  19:       207.40 cm**-1
  20:       235.15 cm**-1
  21:       247.27 cm**-1
  22:       272.67 cm**-1
  23:       287.31 cm**-1
  24:       305.48 cm**-1
  25:       313.58 cm**-1
  26:       329.96 cm**-1
  27:       332.45 cm**-1
  28:       351.18 cm**-1
  29:       360.14 cm**-1
  30:       364.36 cm**-1
  31:       377.87 cm**-1
  32:       390.02 cm**-1
  33:       424.95 cm**-1
  34:       476.10 cm**-1
  35:       489.16 cm**-1
  36:       506.38 cm**-1
  37:       532.61 cm**-1
  38:       544.78 cm**-1
  39:       551.28 cm**-1
  40:       557.59 cm**-1
  41:       574.56 cm**-1
  42:       596.99 cm**-1
  43:       615.34 cm**-1
  44:       640.12 cm**-1
  45:       660.78 cm**-1
  46:       680.53 cm**-1
  47:       693.40 cm**-1
  48:       713.53 cm**-1
  49:       722.36 cm**-1
  50:       739.01 cm**-1
  51:       743.01 cm**-1
  52:       768.33 cm**-1
  53:       797.94 cm**-1
  54:       831.16 cm**-1
  55:       840.58 cm**-1
  56:       873.73 cm**-1
  57:       896.70 cm**-1
  58:       923.09 cm**-1
  59:       959.50 cm**-1
  60:      1443.08 cm**-1
  61:      1484.21 cm**-1
  62:      1512.12 cm**-1
  63:      1519.97 cm**-1
  64:      1526.24 cm**-1
  65:      1533.99 cm**-1
  66:      1538.48 cm**-1
  67:      1547.83 cm**-1
  68:      1558.51 cm**-1
  69:      1579.34 cm**-1
  70:      2998.99 cm**-1
  71:      3050.71 cm**-1
  72:      3067.97 cm**-1
  73:      3129.61 cm**-1
  74:      3161.27 cm**-1
  75:      3191.86 cm**-1
  76:      3220.81 cm**-1
  77:      3250.05 cm**-1
  78:      3282.29 cm**-1
  79:      3324.76 cm**-1
  80:      3348.63 cm**-1
  81:      3353.47 cm**-1
  82:      3366.70 cm**-1
  83:      3387.09 cm**-1
  84:      3399.89 cm**-1
  85:      3438.48 cm**-1
  86:      3451.98 cm**-1
  87:      3520.07 cm**-1
  88:      3542.86 cm**-1
  89:      3686.87 cm**-1


------------
NORMAL MODES
------------

These modes are the cartesian displacements weighted by the diagonal matrix
M(i,i)=1/sqrt(m[i]) where m[i] is the mass of the displaced atom
Thus, these vectors are normalized but *not* orthogonal

                  0          1          2          3          4          5    
      0       0.000000   0.000000   0.000000   0.000000   0.000000   0.000000
      1       0.000000   0.000000   0.000000   0.000000   0.000000   0.000000
      2       0.000000   0.000000   0.000000   0.000000   0.000000   0.000000
      3       0.000000   0.000000   0.000000   0.000000   0.000000   0.000000
      4       0.000000   0.000000   0.000000   0.000000   0.000000   0.000000
      5       0.000000   0.000000   0.000000   0.000000   0.000000   0.000000
      6       0.000000   0.000000   0.000000   0.000000   0.000000   0.000000
      7       0.000000   0.000000   0.000000   0.000000   0.000000   0.000000
      8       0.000000   0.000000   0.000000   0.000000   0.000000   0.000000
      9       0.000000   0.000000   0.000000   0.000000   0.000000   0.000000
     10       0.000000   0.000000   0.000000   0.000000   0.000000   0.000000
     11       0.000000   0.000000   0.000000   0.000000   0.000000   0.000000
     12       0.000000   0.000000   0.000000   0.000000   0.000000   0.000000
     13       0.000000   0.000000   0.000000   0.000000   0.000000   0.000000
     14       0.000000   0.000000   0.000000   0.000000   0.000000   0.000000
     15       0.000000   0.000000   0.000000   0.000000   0.000000   0.000000
     16       0.000000   0.000000   0.000000   0.000000   0.000000   0.000000
     17       0.000000   0.000000   0.000000   0.000000   0.000000   0.000000
     18       0.000000   0.000000   0.000000   0.000000   0.000000   0.000000
     19       0.000000   0.000000   0.000000   0.000000   0.000000   0.000000
     20       0.000000   0.000000   0.000000   0.000000   0.000000   0.000000
     21       0.000000   0.000000   0.000000   0.000000   0.000000   0.000000
     22       0.000000   0.000000   0.000000   0.000000   0.000000   0.000000
     23       0.000000   0.000000   0.000000   0.000000   0.000000   0.000000
     24       0.000000   0.000000   0.000000   0.000000   0.000000   0.000000
     25       0.000000   0.000000   0.000000   0.000000   0.000000   0.000000
     26       0.000000   0.000000   0.000000   0.000000   0.000000   0.000000
     27       0.000000   0.000000   0.000000   0.000000   0.000000   0.000000
     28       0.000000   0.000000   0.000000   0.000000   0.000000   0.000000
     29       0.000000   0.000000   0.000000   0.000000   0.000000   0.000000
     30       0.000000   0.000000   0.000000   0.000000   0.000000   0.000000
     31       0.000000   0.000000   0.000000   0.000000   0.000000   0.000000
     32       0.000000   0.000000   0.000000   0.000000   0.000000   0.000000
     33       0.000000   0.000000   0.000000   0.000000   0.000000   0.000000
     34       0.000000   0.000000   0.000000   0.000000   0.000000   0.000000
     35       0.000000   0.000000   0.000000   0.000000   0.000000   0.000000
     36       0.000000   0.000000   0.000000   0.000000   0.000000   0.000000
     37       0.000000   0.000000   0.000000   0.000000   0.000000   0.000000
     38       0.000000   0.000000   0.000000   0.000000   0.000000   0.000000
     39       0.000000   0.000000   0.000000   0.000000   0.000000   0.000000
     40       0.000000   0.000000   0.000000   0.000000   0.000000   0.000000
     41       0.000000   0.000000   0.000000   0.000000   0.000000   0.000000
     42       0.000000   0.000000   0.000000   0.000000   0.000000   0.000000
     43       0.000000   0.000000   0.000000   0.000000   0.000000   0.000000
     44       0.000000   0.000000   0.000000   0.000000   0.000000   0.000000
     45       0.000000   0.000000   0.000000   0.000000   0.000000   0.000000
     46       0.000000   0.000000   0.000000   0.000000   0.000000   0.000000
     47       0.000000   0.000000   0.000000   0.000000   0.000000   0.000000
     48       0.000000   0.000000   0.000000   0.000000   0.000000   0.000000
     49       0.000000   0.000000   0.000000   0.000000   0.000000   0.000000
     50       0.000000   0.000000   0.000000   0.000000   0.000000   0.000000
     51       0.000000   0.000000   0.000000   0.000000   0.000000   0.000000
     52       0.000000   0.000000   0.000000   0.000000   0.000000   0.000000
     53       0.000000   0.000000   0.000000   0.000000   0.000000   0.000000
     54       0.000000   0.000000   0.000000   0.000000   0.000000   0.000000
     55       0.000000   0.000000   0.000000   0.000000   0.000000   0.000000
     56       0.000000   0.000000   0.000000   0.000000   0.000000   0.000000
     57       0.000000   0.000000   0.000000   0.000000   0.000000   0.000000
     58       0.000000   0.000000   0.000000   0.000000   0.000000   0.000000
     59       0.000000   0.000000   0.000000   0.000000   0.000000   0.000000
     60       0.000000   0.000000   0.000000   0.000000   0.000000   0.000000
     61       0.000000   0.000000   0.000000   0.000000   0.000000   0.000000
     62       0.000000   0.000000   0.000000   0.000000   0.000000   0.000000
     63       0.000000   0.000000   0.000000   0.000000   0.000000   0.000000
     64       0.000000   0.000000   0.000000   0.000000   0.000000   0.000000
     65       0.000000   0.000000   0.000000   0.000000   0.000000   0.000000
     66       0.000000   0.000000   0.000000   0.000000   0.000000   0.000000
     67       0.000000   0.000000   0.000000   0.000000   0.000000   0.000000
     68       0.000000   0.000000   0.000000   0.000000   0.000000   0.000000
     69       0.000000   0.000000   0.000000   0.000000   0.000000   0.000000
     70       0.000000   0.000000   0.000000   0.000000   0.000000   0.000000
     71       0.000000   0.000000   0.000000   0.000000   0.000000   0.000000
     72       0.000000   0.000000   0.000000   0.000000   0.000000   0.000000
     73       0.000000   0.000000   0.000000   0.000000   0.000000   0.000000
     74       0.000000   0.000000   0.000000   0.000000   0.000000   0.000000
     75       0.000000   0.000000   0.000000   0.000000   0.000000   0.000000
     76       0.000000   0.000000   0.000000   0.000000   0.000000   0.000000
     77       0.000000   0.000000   0.000000   0.000000   0.000000   0.000000
     78       0.000000   0.000000   0.000000   0.000000   0.000000   0.000000
     79       0.000000   0.000000   0.000000   0.000000   0.000000   0.000000
     80       0.000000   0.000000   0.000000   0.000000   0.000000   0.000000
     81       0.000000   0.000000   0.000000   0.000000   0.000000   0.000000
     82       0.000000   0.000000   0.000000   0.000000   0.000000   0.000000
     83       0.000000   0.000000   0.000000   0.000000   0.000000   0.000000
     84       0.000000   0.000000   0.000000   0.000000   0.000000   0.000000
     85       0.000000   0.000000   0.000000   0.000000   0.000000   0.000000
     86       0.000000   0.000000   0.000000   0.000000   0.000000   0.000000
     87       0.000000   0.000000   0.000000   0.000000   0.000000   0.000000
     88       0.000000   0.000000   0.000000   0.000000   0.000000   0.000000
     89       0.000000   0.000000   0.000000   0.000000   0.000000   0.000000
                  6          7          8          9         10         11    
      0       0.033937  -0.020275   0.038362   0.048104   0.077366   0.190959
      1      -0.029732   0.121797   0.090126  -0.066958   0.042002  -0.092699
      2       0.007505  -0.036832  -0.045901  -0.028226   0.063327   0.112661
      3       0.028754  -0.021485   0.014657   0.024353   0.084914   0.149508
      4      -0.044063   0.133188   0.121838  -0.050151   0.040295  -0.071745
      5      -0.009569  -0.022766  -0.015694  -0.015174   0.062093   0.125141
      6      -0.022872  -0.005637   0.054243  -0.003330   0.089118   0.048436
      7      -0.024737   0.129924   0.099008  -0.062514   0.041752  -0.072838
      8      -0.042968  -0.015256   0.023061   0.001478   0.059992   0.113789
      9       0.018335   0.034207   0.068095   0.029876   0.016845   0.102706
     10      -0.027673  -0.005013   0.031759  -0.043299   0.061747  -0.093291
     11      -0.001565  -0.143612  -0.084522  -0.002592   0.087894   0.109720
     12       0.019280   0.031946   0.077079   0.044596   0.019293   0.117577
     13      -0.022858   0.021669   0.003463  -0.049967   0.045280  -0.122367
     14       0.000481  -0.113182  -0.125508  -0.035711   0.065667   0.052769
     15       0.030244   0.043594  -0.015593   0.028054  -0.001467   0.067423
     16      -0.018567  -0.041296  -0.072855  -0.019437   0.054470  -0.104772
     17       0.001274  -0.063447  -0.127279  -0.067859   0.042447   0.009016
     18      -0.023175  -0.064492   0.026849  -0.043588   0.064185  -0.045822
     19      -0.017373  -0.079744   0.110737   0.013875  -0.020781  -0.018417
     20       0.013424   0.032160  -0.061158  -0.000112   0.036861   0.037587
     21      -0.023927  -0.062045   0.052064  -0.051766   0.080302  -0.055812
     22      -0.017253  -0.071556   0.134029   0.014319  -0.007276  -0.011548
     23       0.011179   0.024915  -0.066022  -0.012154   0.039121   0.017750
     24      -0.066470  -0.017304   0.019083  -0.025070   0.030680  -0.026990
     25      -0.031462  -0.078666   0.117840   0.016236  -0.029811  -0.026917
     26      -0.026717   0.017020  -0.094924  -0.006158  -0.016535  -0.001438
     27      -0.036289  -0.064363   0.182594  -0.045112   0.059949  -0.130977
     28       0.053052   0.139152  -0.083202  -0.029526   0.069374   0.148095
     29      -0.117773   0.071020   0.111839   0.008508   0.084514   0.031736
     30      -0.073827  -0.033512   0.146002  -0.025242   0.074991  -0.138963
     31       0.088230   0.085139  -0.022496  -0.054117   0.049076   0.167820
     32      -0.169835   0.033523   0.149536   0.019978   0.088276   0.027336
     33       0.021442  -0.082525   0.181109  -0.054413   0.018916  -0.068333
     34       0.034245  -0.012124   0.040968  -0.045553   0.047587   0.138965
     35      -0.066090   0.061649   0.130728  -0.008986   0.047264   0.099444
     36       0.020725   0.013055  -0.107363   0.009350   0.020475  -0.026340
     37       0.015436   0.029305  -0.174341  -0.005709  -0.059511   0.047054
     38      -0.225614  -0.035850   0.097258   0.025324  -0.069445  -0.087616
     39       0.022250   0.030945  -0.142428   0.012811   0.000830  -0.051125
     40       0.020220   0.010192  -0.254761   0.003748  -0.139020  -0.006855
     41      -0.228284  -0.056806   0.061708   0.030493  -0.112823  -0.118879
     42       0.047526   0.031017  -0.090862   0.007206   0.024413  -0.036889
     43       0.042598   0.017938  -0.168636  -0.004665  -0.097400   0.011737
     44      -0.188048  -0.073981   0.066369   0.026127  -0.115473  -0.110617
     45       0.134736   0.119595  -0.209833  -0.068745   0.028330  -0.058753
     46       0.063379  -0.045726  -0.107860   0.040497   0.097178   0.007698
     47       0.047709   0.106125  -0.017857  -0.105793   0.057469  -0.064384
     48       0.123657   0.149581  -0.195305  -0.022833  -0.009210  -0.086330
     49      -0.006572  -0.181210  -0.171254   0.038844   0.107497   0.008416
     50       0.019939   0.050279  -0.039148  -0.108356   0.063980  -0.062135
     51       0.123438   0.140077  -0.185900  -0.004347   0.001912  -0.107980
     52      -0.040646  -0.164548  -0.187885   0.011911   0.044192   0.051582
     53      -0.048739   0.027383  -0.019709  -0.071740   0.003043  -0.076345
     54      -0.132115   0.086441  -0.144936   0.035335  -0.049674   0.043811
     55      -0.041933  -0.081850  -0.065448   0.038343  -0.199877  -0.083045
     56      -0.096503  -0.018491  -0.101886   0.002672  -0.099754  -0.089841
     57      -0.204063   0.102427  -0.072089   0.013755  -0.143245   0.130328
     58      -0.094049  -0.101482   0.071664   0.040096  -0.159290  -0.076174
     59      -0.050167  -0.011168  -0.195754   0.006217  -0.092821  -0.117403
     60      -0.238696   0.121188  -0.033470  -0.007272  -0.210354   0.199715
     61      -0.170354  -0.016839   0.125766   0.005090  -0.258287   0.081943
     62      -0.056633  -0.040831  -0.161363  -0.002161  -0.146736  -0.108777
     63      -0.049625  -0.139724   0.059064  -0.055346   0.065312  -0.066784
     64       0.034074   0.109745   0.111996  -0.007798   0.018200  -0.004289
     65       0.039848   0.104230   0.033039  -0.085382   0.015475  -0.017442
     66      -0.047821  -0.141938   0.035348  -0.058797   0.093406  -0.063203
     67       0.062129   0.163103   0.097257  -0.012609   0.026229  -0.009351
     68       0.080887   0.183101   0.010507  -0.091426   0.030253  -0.024452
     69      -0.040105  -0.121207   0.036978  -0.062454   0.095412  -0.063382
     70       0.042689   0.102725   0.100566  -0.006477   0.013934  -0.014015
     71       0.076658   0.154566  -0.049569  -0.087276   0.052658  -0.011902
     72       0.182833   0.080960  -0.108987   0.736149   0.522294  -0.427311
     73       0.000229   0.324989   0.075800  -0.015012  -0.073102   0.093476
     74       0.380929  -0.113438   0.055706   0.465804   0.220360  -0.327371
     75      -0.104967   0.100483  -0.041119   0.138900  -0.023026   0.065960
     76       0.025739   0.193228   0.075327   0.073486  -0.019953   0.002794
     77       0.242242  -0.053933   0.086701   0.163214  -0.045061  -0.070816
     78      -0.138641   0.004702   0.005786   0.017244  -0.041651   0.066723
     79       0.026386   0.204419   0.070351   0.080882  -0.020367   0.004535
     80       0.215182   0.052400   0.098520   0.047872  -0.071871  -0.006186
     81       0.248118  -0.160118   0.135189  -0.100301  -0.207633  -0.042155
     82      -0.010234  -0.263113  -0.051873  -0.002605   0.060420   0.112327
     83       0.091793  -0.036107   0.129934   0.028559  -0.106499   0.183046
     84       0.050323  -0.110238   0.058962  -0.144236  -0.270476   0.086203
     85       0.092673  -0.176306  -0.147454   0.113688   0.193585  -0.119510
     86       0.132153  -0.062176   0.169258   0.019947  -0.111231   0.184163
     87       0.283575   0.009921   0.016646  -0.008170  -0.075278  -0.155666
     88      -0.022742  -0.305798  -0.017924  -0.030161   0.023402   0.150786
     89       0.135847   0.011394   0.037759   0.096478  -0.016232   0.007657
                 12         13         14         15         16         17    
      0       0.023578  -0.088819  -0.064084   0.146345  -0.062499   0.030621
      1       0.055944  -0.006946  -0.024808  -0.018043  -0.019428  -0.026520
      2       0.050967   0.010412  -0.068214  -0.181030  -0.005938   0.021095
      3       0.050004  -0.052275  -0.119272   0.074327  -0.078865   0.092469
      4       0.034115   0.004113   0.009194  -0.033679  -0.013877  -0.025639
      5       0.031609   0.028852  -0.041245  -0.219123  -0.004858   0.035409
      6       0.059888  -0.024139  -0.118879  -0.002745  -0.039512   0.097062
      7       0.051436  -0.015376  -0.017908  -0.030336  -0.016324  -0.024920
      8       0.006563   0.058835  -0.001665  -0.221291  -0.004472   0.035892
      9      -0.012266  -0.091609   0.074067   0.133170   0.034983  -0.127829
     10       0.066888  -0.033088  -0.099482   0.239847  -0.085216  -0.024006
     11       0.045978  -0.015481  -0.109438   0.014254  -0.064137   0.000962
     12      -0.022318  -0.098479   0.079341   0.161753   0.028670  -0.125442
     13       0.070008  -0.002513  -0.083405   0.228678  -0.070988  -0.021061
     14       0.065858   0.026511  -0.101718  -0.054812  -0.037862  -0.001069
     15      -0.018091  -0.003397   0.112769   0.095498   0.053653  -0.107104
     16       0.043629   0.069104  -0.069064   0.223491  -0.095231   0.027893
     17       0.086354   0.035698  -0.088934  -0.100659   0.000003  -0.026555
     18      -0.125935  -0.070842  -0.020224  -0.006084   0.014368   0.030063
     19       0.098308   0.056412   0.001461  -0.025120  -0.030177   0.004166
     20      -0.038190  -0.043501  -0.007938   0.004409  -0.009364  -0.061473
     21      -0.133516  -0.077112  -0.008668  -0.005686   0.025485   0.033061
     22       0.104461   0.060263   0.004134  -0.022907  -0.016788   0.005772
     23      -0.061788  -0.060699  -0.001431   0.001305  -0.013299  -0.058881
     24      -0.120629  -0.071561  -0.016602   0.002514   0.047045   0.036867
     25       0.090601   0.052134   0.004550  -0.029475  -0.029005   0.014079
     26      -0.079303  -0.070169  -0.007895  -0.003083  -0.018392  -0.040923
     27       0.077470  -0.029741  -0.068481  -0.159969   0.258344   0.046720
     28       0.035043  -0.011624  -0.077382  -0.149482  -0.095271   0.046853
     29      -0.008324   0.140497   0.028394  -0.029612  -0.144239   0.008651
     30       0.045672   0.042380  -0.048776  -0.133397   0.168109   0.052737
     31       0.069229  -0.094432  -0.077588  -0.199700   0.039429   0.030559
     32      -0.033672   0.189940   0.094360  -0.053319  -0.094438  -0.006299
     33       0.058660   0.010640  -0.011957  -0.147040   0.170991   0.033959
     34       0.067068  -0.137003  -0.020044  -0.231393   0.254397  -0.003640
     35      -0.025247   0.201088   0.088595  -0.036971  -0.252034   0.001458
     36      -0.041532   0.153488   0.032438  -0.022313  -0.020482   0.056860
     37      -0.006841  -0.065465  -0.019223  -0.144650   0.062911   0.039599
     38      -0.025046  -0.026042   0.036786  -0.030719   0.004151  -0.017101
     39      -0.024351   0.184091   0.068493   0.001242  -0.012182   0.019393
     40       0.002268  -0.066908  -0.004541  -0.077098   0.057084   0.024312
     41      -0.025071  -0.035247   0.032758   0.000427  -0.001252  -0.013243
     42      -0.023936   0.178100   0.055993   0.019647  -0.030535   0.015728
     43       0.007316  -0.072851  -0.012724  -0.059340   0.033654   0.008980
     44      -0.029846  -0.051783   0.008132   0.020452  -0.015320   0.005408
     45       0.004240   0.175678   0.050944  -0.084477   0.033293  -0.116394
     46      -0.099045   0.107407  -0.045360   0.112127  -0.092060   0.231450
     47       0.132043  -0.056120  -0.074963   0.106117   0.010901  -0.099822
     48       0.010495   0.228137   0.100033  -0.054530   0.020278  -0.039738
     49      -0.039729   0.132875  -0.067743   0.133997  -0.123415   0.124633
     50       0.153421  -0.051113  -0.079656   0.114770   0.000690  -0.137487
     51       0.004338   0.272817   0.087947  -0.033047  -0.024917  -0.011932
     52      -0.029443   0.019786  -0.011984   0.073192  -0.002358   0.080581
     53       0.154553  -0.053749  -0.031106   0.129625   0.023700  -0.110329
     54       0.053709   0.052498   0.039250   0.023243   0.091496   0.007312
     55       0.099816  -0.030769   0.008191  -0.041458  -0.017967   0.089240
     56      -0.127853  -0.128612   0.003843  -0.029525  -0.041790  -0.003654
     57       0.032953   0.045153  -0.074373   0.073990   0.190718   0.003711
     58       0.141426   0.042969   0.010971  -0.032107  -0.005290   0.073165
     59      -0.145493  -0.159891   0.034104  -0.050033  -0.072118   0.001871
     60       0.009205   0.068452  -0.160882   0.110726   0.257294  -0.020369
     61       0.096863   0.144202  -0.141407   0.011952   0.132923  -0.080618
     62      -0.160858  -0.213260  -0.020355  -0.010523  -0.050953   0.085977
     63      -0.053819  -0.028106  -0.093256  -0.022038   0.015500  -0.107974
     64      -0.200446  -0.083621   0.129131  -0.005945  -0.010171   0.306595
     65       0.079911  -0.083460   0.137025   0.109744   0.099255   0.143986
     66      -0.147263  -0.067728  -0.069368  -0.041038  -0.018521  -0.020252
     67      -0.176998  -0.071718   0.133990   0.007539  -0.004625   0.261328
     68       0.102427  -0.069306   0.146500   0.126948   0.103787   0.084831
     69      -0.171773  -0.087480  -0.046956  -0.034016  -0.022247   0.039684
     70      -0.092957  -0.006211   0.068837  -0.010485   0.008779   0.098413
     71       0.066231  -0.044302   0.112655   0.085251   0.062987  -0.007832
     72       0.593380  -0.445341   0.583771  -0.391922  -0.209948  -0.245357
     73      -0.176162   0.020742  -0.123497   0.019678  -0.136651  -0.154664
     74       0.168374  -0.099560   0.059283  -0.129796   0.214729  -0.109013
     75       0.112697  -0.150732   0.016276   0.009770  -0.163111   0.066660
     76      -0.164864   0.030554  -0.142619  -0.049650  -0.051811  -0.302522
     77      -0.052064   0.029101  -0.188337   0.077805   0.203387   0.089860
     78      -0.048653  -0.099561  -0.093995   0.033039  -0.104079   0.063758
     79      -0.149363   0.030732  -0.138913  -0.049047  -0.055547  -0.307805
     80      -0.096802   0.018400  -0.169933   0.145918   0.150309   0.244697
     81       0.054894  -0.047799   0.033661  -0.062943  -0.163586  -0.061088
     82      -0.034443  -0.034074   0.231191   0.045418   0.184158  -0.162005
     83      -0.043898   0.112725   0.102960   0.056982  -0.068623   0.006726
     84       0.023242  -0.105970   0.022748   0.044343  -0.271987   0.032405
     85      -0.015429   0.029594   0.125137   0.064774   0.097001  -0.310649
     86      -0.039654   0.122198   0.122068   0.023083  -0.022347   0.002506
     87       0.038014   0.145437  -0.005062  -0.077674  -0.143081  -0.095506
     88      -0.030079  -0.085056   0.248867   0.041926   0.192924  -0.150596
     89      -0.022214   0.126348   0.010725   0.119289  -0.181697  -0.101197
                 18         19         20         21         22         23    
      0      -0.134691   0.018527   0.091838  -0.081372   0.024068  -0.028743
      1       0.086478   0.024998   0.040081   0.067011  -0.012328   0.130166
      2       0.055479   0.017007   0.021756  -0.062968  -0.072380   0.053964
      3      -0.321629  -0.007415   0.121908  -0.028793   0.027319  -0.021828
      4       0.101632   0.026129   0.071893   0.073868   0.014798   0.099704
      5       0.047180   0.017002   0.072376  -0.041631  -0.031158   0.030169
      6      -0.217015  -0.017272   0.091075  -0.022870   0.039726  -0.026255
      7       0.097790   0.028138   0.056330   0.071175   0.004486   0.135466
      8       0.056116   0.015669   0.102981  -0.033934  -0.008918  -0.018545
      9       0.299543   0.040231  -0.057513  -0.124501  -0.079273   0.008974
     10      -0.025244   0.026565  -0.120427  -0.031586  -0.129194  -0.020747
     11       0.184145   0.064724  -0.063038  -0.149729  -0.051859   0.051856
     12       0.312254   0.049028  -0.049113  -0.127075  -0.051268   0.011111
     13      -0.104912   0.004029  -0.099320  -0.002335  -0.130816  -0.024079
     14       0.087707   0.027389  -0.058897  -0.116695  -0.108345   0.050359
     15       0.209537   0.001330  -0.031958  -0.091344  -0.060039   0.005792
     16      -0.088980   0.006411  -0.087660  -0.001692  -0.045572  -0.025079
     17       0.000629  -0.008419  -0.059810  -0.092299  -0.183311   0.045754
     18      -0.041017   0.012333   0.044451  -0.073554   0.149358  -0.001789
     19       0.006285  -0.025042  -0.058675   0.253693  -0.035434  -0.022410
     20       0.032471   0.037290  -0.084144   0.356266  -0.001927   0.011748
     21      -0.052981   0.024184   0.042135  -0.016392   0.184326  -0.005101
     22      -0.004025  -0.003660  -0.059541   0.290629  -0.033777  -0.035927
     23       0.027653   0.026672  -0.083344   0.367353   0.032923   0.035491
     24      -0.055795   0.066716   0.050949  -0.017564   0.126031   0.039162
     25      -0.003915  -0.015695  -0.058338   0.268922  -0.043462  -0.000671
     26       0.025301   0.015252  -0.061585   0.303721   0.033333   0.121710
     27       0.047724  -0.135652  -0.297020  -0.096046   0.085930   0.000067
     28       0.054329   0.071025   0.120169   0.017786   0.016902   0.009042
     29       0.028929   0.047178   0.145141  -0.021674  -0.049416  -0.099060
     30       0.069767  -0.091745  -0.194084  -0.076867   0.060282  -0.076295
     31       0.022850   0.008185  -0.014185  -0.007882   0.037181   0.084495
     32       0.021102   0.025321   0.132400  -0.026105  -0.081149  -0.202031
     33       0.040170  -0.095711  -0.247269  -0.074842   0.077141  -0.007257
     34      -0.024315  -0.092630  -0.159244  -0.041234   0.017920   0.050157
     35       0.035825   0.095995   0.209007   0.000463  -0.060884  -0.139773
     36       0.027894  -0.015274   0.010826   0.050863   0.061633   0.069573
     37      -0.005631   0.031447  -0.051808  -0.024349  -0.004333  -0.326175
     38      -0.037291   0.040645   0.031676  -0.035698  -0.033188  -0.010069
     39       0.005579  -0.000029  -0.002759   0.012166   0.006877   0.015743
     40      -0.026373   0.025790  -0.062865  -0.051384  -0.027949  -0.350718
     41      -0.038256   0.032489   0.029270  -0.041716  -0.033078  -0.026046
     42       0.017096  -0.019191   0.011488   0.018841   0.013715   0.055499
     43      -0.011570   0.007928  -0.043087  -0.060818  -0.031566  -0.301290
     44      -0.023572  -0.000094   0.032911  -0.021661  -0.001149  -0.001467
     45      -0.106033  -0.101036  -0.017934   0.016251  -0.168264   0.039793
     46       0.208002   0.058910   0.022552  -0.049578   0.188409   0.007666
     47      -0.034092  -0.013886  -0.000263  -0.127570  -0.126609   0.025734
     48      -0.052712  -0.073141   0.024265   0.017329  -0.090843   0.079766
     49       0.184713   0.055558  -0.011984  -0.020472   0.203763   0.002489
     50      -0.042944  -0.015185  -0.014328  -0.113430  -0.118843   0.024207
     51      -0.013590  -0.058073   0.055763   0.028665  -0.037581   0.129694
     52       0.083110   0.025486  -0.095855  -0.044596   0.083090  -0.146312
     53      -0.039842   0.004426  -0.014507  -0.112623  -0.101371  -0.002120
     54      -0.047397   0.169815  -0.012763   0.047385   0.026296   0.090225
     55      -0.028320  -0.059902   0.066766  -0.198021   0.110608   0.142885
     56      -0.008514  -0.027318   0.005137   0.020626   0.047674   0.170973
     57      -0.034505   0.179570   0.010081   0.069006  -0.013241   0.067452
     58      -0.027619  -0.046552   0.080958  -0.128326   0.117326   0.180003
     59      -0.013334  -0.029668  -0.013858  -0.017705   0.046560   0.139644
     60      -0.026012   0.189151   0.015866   0.101779  -0.045452   0.045585
     61      -0.060267   0.084133  -0.023847   0.035756   0.054639   0.137706
     62       0.034024  -0.124476   0.091489  -0.090337   0.027077   0.134884
     63      -0.070263  -0.000756   0.003691   0.065686   0.080166  -0.070116
     64      -0.031979   0.064230  -0.034197  -0.104713  -0.286161   0.070475
     65       0.005854  -0.023307   0.090279  -0.021376   0.212288  -0.083950
     66      -0.069730   0.004872  -0.025870   0.055257  -0.045796  -0.010877
     67      -0.030722   0.062820  -0.030458  -0.081815  -0.227947   0.062954
     68       0.007553  -0.024380   0.092806   0.007053   0.284753  -0.090542
     69      -0.067396   0.000917  -0.017634  -0.003257  -0.081422  -0.005039
     70      -0.044033   0.070849  -0.050813   0.043113  -0.156788   0.025660
     71       0.006183  -0.011184   0.022255   0.173471   0.219883  -0.050095
     72      -0.368834   0.623719  -0.261318  -0.122431   0.216110  -0.046578
     73       0.066071  -0.177336   0.050960  -0.069677   0.262298  -0.216519
     74      -0.197946   0.383456  -0.021519  -0.049511  -0.018303   0.044957
     75       0.092812  -0.211630   0.005263   0.083147  -0.071971  -0.017326
     76      -0.048402  -0.032739   0.021362  -0.086444   0.121063  -0.027574
     77       0.054167  -0.047517   0.109984   0.049406  -0.094203  -0.015773
     78       0.083800  -0.237045   0.044080   0.059672  -0.060413  -0.029733
     79      -0.044973  -0.032557   0.020841  -0.082382   0.130379  -0.031736
     80       0.146114  -0.150444   0.154137   0.047513   0.076036  -0.221952
     81       0.063625   0.100639   0.079865   0.027218  -0.022560  -0.058665
     82      -0.073382  -0.099679   0.106679   0.011930  -0.072692   0.022630
     83      -0.149768  -0.037429  -0.277470  -0.061660   0.095884   0.040981
     84       0.164822  -0.104668   0.209121   0.079413  -0.108641  -0.230158
     85      -0.052415   0.003740   0.287466  -0.032088  -0.058275   0.207227
     86      -0.183602   0.006519  -0.343731  -0.070068   0.116995   0.062533
     87       0.059364   0.069317   0.128691   0.001229   0.008735   0.215557
     88      -0.081367  -0.098806   0.078487   0.018700  -0.080697  -0.047346
     89      -0.103016   0.032621  -0.082618  -0.089895   0.081690   0.117812
                 24         25         26         27         28         29    
      0      -0.048025   0.050953   0.024457  -0.016971   0.013960   0.000322
      1      -0.223711   0.047348   0.213449  -0.058720   0.030782   0.013477
      2       0.023321  -0.071054   0.189592   0.032429   0.130220  -0.049970
      3      -0.052788   0.046483   0.054223  -0.009491   0.017814   0.004689
      4      -0.232291   0.073696   0.190091  -0.068412   0.038824   0.014038
      5      -0.012569  -0.030769   0.173618   0.019044   0.136543  -0.049814
      6      -0.109558   0.040616   0.034142  -0.036673  -0.007239  -0.004937
      7      -0.235517   0.060566   0.210988  -0.054784   0.032424   0.014947
      8      -0.027438  -0.004856   0.135768  -0.004521   0.134008  -0.048833
      9       0.045460  -0.040595   0.017520  -0.000111   0.032986  -0.015906
     10       0.164982  -0.191718   0.047183  -0.008038   0.096158  -0.100302
     11      -0.045731  -0.032306   0.083424  -0.023519   0.001452  -0.056854
     12       0.034039  -0.008056   0.014908   0.015229   0.018521  -0.009966
     13       0.173922  -0.144435   0.083321   0.039696   0.069715  -0.035024
     14      -0.017448  -0.051358   0.132295  -0.008556   0.004123  -0.006427
     15       0.084872   0.021351   0.061465   0.067252  -0.002731   0.080914
     16       0.211419  -0.096440   0.076901   0.082231   0.045134  -0.015398
     17       0.000110  -0.075142   0.175399  -0.002143   0.015110   0.041120
     18       0.065394  -0.047616   0.108415  -0.045446  -0.181592  -0.122849
     19      -0.055150   0.012193  -0.075963   0.123474   0.138987  -0.092383
     20       0.065978  -0.007811   0.058662  -0.158376  -0.198716   0.044548
     21       0.073832  -0.050379   0.107545  -0.041402  -0.169668  -0.153072
     22      -0.049802   0.017465  -0.068410   0.122780   0.142102  -0.115616
     23       0.077140  -0.018335   0.050566  -0.178679  -0.205017   0.061013
     24       0.072768  -0.044642   0.063288  -0.038293  -0.081662  -0.207862
     25      -0.057417   0.012814  -0.098240   0.133496   0.176689  -0.113596
     26       0.080764  -0.033557   0.001310  -0.175473  -0.138671   0.048098
     27       0.042248   0.043655   0.034966  -0.023466   0.045218   0.007951
     28       0.077087  -0.045693  -0.314312   0.072120  -0.174156  -0.034988
     29       0.112911  -0.018586  -0.200756  -0.113993  -0.023131  -0.014844
     30       0.030907   0.034800  -0.037035  -0.074884   0.028245  -0.020471
     31       0.106468  -0.043882  -0.206080   0.160963  -0.141682   0.014409
     32       0.130268  -0.021592  -0.138675  -0.111111   0.026132   0.004842
     33       0.018692  -0.044276  -0.018265  -0.023408   0.058667   0.052369
     34       0.171740  -0.005282  -0.049284   0.257382  -0.103745   0.049720
     35       0.077355  -0.106504  -0.228413  -0.151855   0.029843   0.037495
     36      -0.300840  -0.189364  -0.144219   0.061692  -0.109497  -0.011258
     37       0.024378   0.058549  -0.045934   0.017078  -0.105483  -0.024226
     38       0.014336   0.052129   0.014053   0.366256  -0.253251   0.015335
     39      -0.283559  -0.165955  -0.123919   0.031230  -0.099991  -0.038039
     40      -0.053974   0.056726   0.056983  -0.095929  -0.029916  -0.022697
     41      -0.021534   0.052310   0.078796   0.303682  -0.206823   0.027105
     42      -0.269014  -0.166445  -0.139845   0.018539  -0.107395  -0.041332
     43      -0.014172   0.055655   0.000448  -0.115876  -0.049923  -0.044395
     44      -0.044758   0.045491   0.113575   0.242887  -0.166460   0.051579
     45       0.093531   0.057155   0.044377  -0.086459   0.096535   0.126634
     46      -0.027575   0.123910  -0.086094   0.049004  -0.032637   0.060869
     47      -0.146438   0.090618  -0.188604  -0.070543  -0.112265  -0.000382
     48       0.171519   0.069354   0.113488   0.084776   0.003133   0.048655
     49       0.020040   0.097573  -0.032243   0.057520  -0.001555   0.051699
     50      -0.126223   0.079529  -0.166500  -0.072724  -0.098196  -0.000639
     51       0.210082   0.110460   0.097492   0.130610  -0.018704   0.004945
     52      -0.019168  -0.038777   0.081136  -0.003472   0.052829   0.151762
     53      -0.075324   0.030267  -0.055165   0.091120  -0.162908  -0.020529
     54      -0.067823  -0.081924  -0.089247  -0.057194   0.066088  -0.063610
     55       0.078925  -0.030119  -0.016684  -0.268945   0.053368   0.031257
     56       0.042479  -0.010740  -0.102232   0.030499   0.174113  -0.024497
     57       0.031860   0.012614  -0.036825  -0.032392   0.089123  -0.014130
     58       0.067027  -0.054271  -0.018636  -0.194344  -0.081395   0.066700
     59       0.006953  -0.025933  -0.124512  -0.009507   0.246531  -0.061788
     60       0.075666   0.062876  -0.014275  -0.014289   0.118983   0.043356
     61       0.082168   0.026067  -0.029690  -0.078079   0.060650   0.284277
     62       0.097362   0.022106  -0.068960  -0.067485   0.208324  -0.133508
     63      -0.071536   0.004603  -0.091773   0.120465   0.211272   0.094296
     64      -0.021381   0.011439  -0.008126  -0.018353  -0.035848  -0.001401
     65       0.007499  -0.033048   0.006626   0.102478   0.124239   0.007346
     66      -0.042013   0.042093  -0.081406   0.022130   0.114288   0.163005
     67      -0.014056   0.025853  -0.016539  -0.039837  -0.040705   0.011061
     68       0.019572  -0.006189  -0.007204   0.066006   0.116319   0.038282
     69      -0.046870   0.043062  -0.078441   0.017477   0.097621   0.163640
     70      -0.033275   0.022783  -0.045939   0.020934   0.054399  -0.016871
     71       0.060630   0.055238  -0.019192  -0.033703   0.071543   0.114690
     72      -0.026848  -0.142017   0.068567   0.022966   0.073066   0.169613
     73      -0.122953  -0.260742   0.149054   0.160722  -0.074632   0.027717
     74       0.024048   0.004255  -0.044867  -0.046327   0.082152   0.080404
     75       0.004751   0.022923   0.006888  -0.004285  -0.027207  -0.003665
     76      -0.004766  -0.015015   0.006448   0.011164   0.035116   0.021684
     77      -0.008070  -0.017414  -0.017043  -0.000189  -0.005936   0.005402
     78      -0.008745   0.101110  -0.071886   0.033339   0.084426   0.091459
     79      -0.005348  -0.024582   0.015080   0.011247   0.021296   0.011927
     80      -0.136968  -0.240101   0.091070   0.177449  -0.049831   0.064370
     81       0.033079  -0.004985  -0.006515   0.005824   0.012347   0.018306
     82      -0.015422  -0.016704   0.013914  -0.004226   0.004342   0.005339
     83      -0.053392   0.036612   0.028336  -0.011273   0.000029  -0.006745
     84      -0.067958  -0.133811   0.047699  -0.140561  -0.066005   0.035843
     85       0.129098   0.440228  -0.222068  -0.146939  -0.145417  -0.497446
     86      -0.046162   0.003236   0.048799   0.054941   0.047282   0.067985
     87       0.282680   0.372407  -0.134603   0.062354  -0.111382  -0.329167
     88      -0.078811  -0.130677   0.057645  -0.005820   0.040920   0.111074
     89       0.000204   0.380157  -0.163675  -0.197622  -0.130566  -0.401833
                 30         31         32         33         34         35    
      0       0.035791   0.028671   0.004346  -0.040819  -0.023277  -0.018392
      1       0.065996   0.088305  -0.021459   0.008702   0.007801   0.012373
      2      -0.146154  -0.108457   0.006333   0.023240   0.016136   0.005078
      3       0.031817   0.014584   0.002679  -0.011686  -0.004859  -0.003219
      4       0.047011   0.043527  -0.006632  -0.010653  -0.005051   0.003510
      5      -0.169794  -0.163836   0.023913   0.007763   0.005489  -0.001775
      6       0.027871   0.030431  -0.004288   0.073323   0.065214   0.023612
      7       0.058407   0.070278  -0.015571   0.004337   0.001268   0.011919
      8      -0.176331  -0.192528   0.035812  -0.010147  -0.000647  -0.013299
      9      -0.036422  -0.035165   0.006311   0.009550   0.023641  -0.019848
     10      -0.165602   0.045781  -0.051015  -0.016091   0.051082  -0.103711
     11       0.064509   0.277944  -0.087747  -0.040295  -0.000247  -0.068440
     12      -0.018460  -0.016556   0.000618   0.001638   0.000517  -0.002675
     13      -0.091207  -0.004810  -0.013497   0.004934   0.003422  -0.002663
     14       0.103946   0.204313  -0.045174  -0.003103   0.000032  -0.006166
     15       0.072117  -0.121388   0.069891   0.036205  -0.044889   0.126135
     16      -0.067456  -0.023380   0.009998   0.002863  -0.048700   0.068916
     17       0.144789   0.147079  -0.017214   0.023853   0.007855   0.025182
     18       0.048757  -0.004645   0.066359  -0.033800   0.061043   0.057161
     19       0.051348   0.002798   0.040568  -0.029672   0.065955   0.033130
[...]
     45      -0.000309  -0.008206   0.001114  -0.001009  -0.000993  -0.000356
     46       0.017779  -0.049174   0.184496   0.000763   0.002168  -0.001771
     47      -0.045806   0.129339  -0.475108   0.000779  -0.003313   0.004394
     48      -0.003383  -0.008288   0.007768   0.000138  -0.000654  -0.000017
     49      -0.002579   0.000479  -0.008718  -0.000081  -0.000556   0.000080
     50       0.003518  -0.006124   0.027054  -0.000065   0.000374  -0.000259
     51       0.058609   0.144492  -0.129573  -0.001325   0.012085   0.000537
     52       0.021418   0.054708  -0.051910  -0.000136   0.006185   0.000032
     53      -0.010550  -0.034017   0.037711  -0.000681  -0.002981  -0.000480
     54      -0.016999  -0.000528   0.002636  -0.002201  -0.003412   0.000755
     55      -0.036702   0.003047   0.006630  -0.058190   0.010900  -0.001541
     56      -0.061882   0.003226   0.011639  -0.101333   0.016094  -0.002731
     57      -0.000280  -0.001675  -0.000304   0.050466  -0.014749   0.001647
     58       0.002574   0.000501  -0.000294  -0.016800   0.005288  -0.000578
     59       0.004050   0.000632  -0.000631  -0.017384   0.005962  -0.000679
     60       0.019411   0.026538   0.001458  -0.802543   0.239634  -0.027706
     61      -0.008452  -0.012298  -0.001229   0.335339  -0.097837   0.011281
     62      -0.007543  -0.013416  -0.000969   0.363708  -0.108716   0.014210
     63       0.001141  -0.035902  -0.064910  -0.000287  -0.000130   0.000108
     64       0.012887  -0.335258  -0.590731   0.000640  -0.004700   0.003618
     65      -0.009160   0.229448   0.393916   0.000163   0.002380  -0.001981
     66      -0.000170  -0.003647  -0.006894   0.000273  -0.000098   0.000024
     67      -0.000877   0.018782   0.032631  -0.000073   0.000425  -0.000353
     68       0.000745  -0.014576  -0.023963  -0.000047  -0.000075   0.000070
     69       0.002002   0.101181   0.187186  -0.003027   0.001542  -0.000316
     70       0.000449   0.037026   0.068467  -0.001412  -0.000086   0.000133
     71      -0.000841   0.000659  -0.006080   0.000799  -0.000696   0.000596
     72      -0.000308  -0.001832  -0.000774  -0.013514   0.014129   0.379834
     73      -0.000059  -0.003505  -0.004840   0.006343  -0.010451  -0.355129
     74       0.000627   0.005365  -0.000341   0.018463  -0.037460  -0.849501
     75       0.000067  -0.000608  -0.000841   0.000788  -0.000655  -0.023341
     76      -0.000544  -0.013238  -0.015130  -0.002917   0.003981   0.020079
     77       0.000122  -0.000137   0.000163  -0.001206   0.002483   0.051955
     78       0.000657   0.012039   0.012341  -0.002610  -0.002672  -0.008809
     79       0.008941   0.214388   0.252977   0.037443  -0.049123   0.038532
     80      -0.000874   0.002404  -0.004168   0.000648  -0.004418   0.022861
     81       0.001650  -0.015100   0.005550   0.003746   0.013355  -0.000411
     82       0.006305  -0.050703   0.018471  -0.002403  -0.003012  -0.000031
     83      -0.000890  -0.015824   0.006119   0.015075   0.052031  -0.001740
     84       0.001389   0.052478  -0.021546  -0.080602  -0.271009   0.008165
     85       0.004671   0.011901  -0.007433  -0.051251  -0.167516   0.005869
     86       0.022595   0.186406  -0.074294  -0.253066  -0.869582   0.030482
     87      -0.028064   0.189343  -0.066903   0.022296   0.057413  -0.002027
     88      -0.108183   0.790679  -0.287920   0.088744   0.213879  -0.005238
     89      -0.005444   0.064728  -0.021303   0.016219   0.043094  -0.001383


-----------
IR SPECTRUM
-----------

 Mode   freq       eps      Int      T**2         TX        TY        TZ
       cm**-1   L/(mol*cm) km/mol    a.u.
----------------------------------------------------------------------------
  6:     64.16   0.000739    3.73  0.003594  ( 0.056240 -0.010602  0.017865)
  7:     79.62   0.000268    1.36  0.001052  ( 0.006162  0.023160  0.021859)
  8:     88.23   0.000242    1.22  0.000855  (-0.026609  0.001989  0.011944)
  9:    104.83   0.000840    4.25  0.002501  ( 0.049689  0.005635  0.000656)
 10:    112.12   0.001230    6.21  0.003422  ( 0.055713 -0.015312 -0.009163)
 11:    126.11   0.002190   11.07  0.005420  (-0.060613 -0.019431 -0.036995)
 12:    137.60   0.000986    4.98  0.002235  ( 0.029359 -0.021502  0.030185)
 13:    149.10   0.000165    0.83  0.000344  ( 0.000404  0.004415 -0.018021)
 14:    165.42   0.001353    6.84  0.002553  ( 0.038550 -0.032656  0.000371)
 15:    170.77   0.002142   10.83  0.003914  (-0.043492 -0.042365 -0.015099)
 16:    186.51   0.005748   29.05  0.009618  ( 0.029724  0.009636 -0.092961)
 17:    190.43   0.001915    9.68  0.003137  (-0.021260 -0.050898 -0.009741)
 18:    202.19   0.000567    2.86  0.000875  (-0.016668 -0.001722 -0.024372)
 19:    207.40   0.002564   12.96  0.003859  ( 0.040142 -0.037331  0.029216)
 20:    235.15   0.002715   13.72  0.003603  (-0.047781 -0.010155  0.034888)
 21:    247.27   0.002169   10.96  0.002738  (-0.031715  0.021410 -0.035690)
 22:    272.67   0.000264    1.33  0.000302  ( 0.004748 -0.002893 -0.016466)
 23:    287.31   0.011304   57.12  0.012277  ( 0.080189 -0.032065  0.069418)
 24:    305.48   0.001083    5.47  0.001107  (-0.001361  0.022410  0.024546)
 25:    313.58   0.006643   33.57  0.006611  ( 0.037486  0.035308 -0.062920)
 26:    329.96   0.000128    0.65  0.000122  (-0.009182  0.005312  0.003000)
 27:    332.45   0.001131    5.72  0.001062  ( 0.023948  0.008305 -0.020476)
 28:    351.18   0.007450   37.65  0.006620  ( 0.035646  0.071265 -0.016467)
 29:    360.14   0.003747   18.94  0.003247  ( 0.048412 -0.022137 -0.020321)
 30:    364.36   0.001208    6.10  0.001034  (-0.014325  0.028473 -0.004278)
 31:    377.87   0.001684    8.51  0.001391  (-0.023327  0.002660 -0.028974)
 32:    390.02   0.015907   80.39  0.012727  (-0.042290 -0.094043 -0.045765)
 33:    424.95   0.007784   39.33  0.005716  ( 0.032653 -0.029074  0.061680)
 34:    476.10   0.026804  135.46  0.017569  (-0.015731  0.130155  0.019519)
 35:    489.16   0.011884   60.06  0.007581  ( 0.020295 -0.005945  0.084464)
 36:    506.38   0.019799  100.06  0.012202  ( 0.030885  0.094483 -0.048174)
 37:    532.61   0.010216   51.63  0.005986  (-0.010469  0.029700 -0.070669)
 38:    544.78   0.001277    6.46  0.000732  (-0.004155 -0.023604  0.012543)
 39:    551.28   0.044275  223.75  0.025063  (-0.032874  0.092384 -0.124288)
 40:    557.59   0.005551   28.05  0.003107  ( 0.019984 -0.024826  0.045726)
 41:    574.56   0.009215   46.57  0.005005  ( 0.062758  0.010739  0.030836)
 42:    596.99   0.001120    5.66  0.000585  ( 0.015637 -0.014088 -0.011935)
 43:    615.34   0.050163  253.51  0.025440  (-0.119828  0.057290  0.088312)
 44:    640.12   0.009954   50.30  0.004853  ( 0.065786  0.001046  0.022888)
 45:    660.78   0.015787   79.78  0.007456  (-0.077087 -0.035337  0.016271)
 46:    680.53   0.023082  116.65  0.010584  ( 0.056259  0.033931 -0.079171)
 47:    693.40   0.025262  127.66  0.011369  (-0.010393  0.057207 -0.089377)
 48:    713.53   0.053821  271.99  0.023539  ( 0.123495 -0.058260  0.069953)
 49:    722.36   0.009809   49.57  0.004237  ( 0.001209  0.048267 -0.043661)
 50:    739.01   0.066381  335.46  0.028031  (-0.072354  0.132556 -0.072279)
 51:    743.01   0.046285  233.90  0.019440  (-0.136006  0.012922  0.027837)
 52:    768.33   0.049100  248.13  0.019942  ( 0.083119 -0.114074 -0.004546)
 53:    797.94   0.010473   52.93  0.004096  (-0.055717 -0.027205 -0.015860)
 54:    831.16   0.025857  130.67  0.009708  (-0.048563 -0.074720 -0.042030)
 55:    840.58   0.075748  382.80  0.028121  ( 0.140196 -0.081859  0.042020)
 56:    873.73   0.117842  595.53  0.042089  ( 0.115125  0.168876  0.017763)
 57:    896.70   0.035151  177.64  0.012233  (-0.009559 -0.043689 -0.101159)
 58:    923.09   0.060974  308.14  0.020613  (-0.136643 -0.043123  0.009057)
 59:    959.50   0.107382  542.66  0.034924  (-0.068778 -0.123192 -0.122547)
 60:   1443.08   0.043203  218.33  0.009343  ( 0.041620  0.086773 -0.008987)
 61:   1484.21   0.048926  247.25  0.010287  ( 0.046099 -0.023619 -0.087200)
 62:   1512.12   0.007442   37.61  0.001536  (-0.005934  0.003329 -0.038593)
 63:   1519.97   0.064627  326.60  0.013269  (-0.012822 -0.026331  0.111404)
 64:   1526.24   0.006037   30.51  0.001234  ( 0.013339 -0.016431 -0.028045)
 65:   1533.99   0.112711  569.60  0.022929  (-0.107697 -0.024351 -0.103622)
 66:   1538.48   0.008973   45.35  0.001820  ( 0.001250  0.042377  0.004771)
 67:   1547.83   0.054042  273.11  0.010896  (-0.049888 -0.031117  0.086247)
 68:   1558.51   0.065435  330.68  0.013102  (-0.068441  0.064750 -0.065004)
 69:   1579.34   0.008412   42.51  0.001662  (-0.014842  0.020395  0.032029)
 70:   2998.99   0.077898  393.67  0.008106  ( 0.060983 -0.043195  0.050210)
 71:   3050.71   0.089333  451.45  0.009138  (-0.056233 -0.028973  0.071669)
 72:   3067.97   0.144097  728.21  0.014657  ( 0.017258  0.067899 -0.098737)
 73:   3129.61   0.210321  1062.88  0.020972  ( 0.077543  0.079369  0.093057)
 74:   3161.27   0.216389  1093.54  0.021361  ( 0.048151  0.131921 -0.040486)
 75:   3191.86   0.144455  730.02  0.014123  ( 0.018036 -0.049675  0.106444)
 76:   3220.81   0.164877  833.22  0.015975  ( 0.088250 -0.052547 -0.073659)
 77:   3250.05   0.115032  581.32  0.011045  (-0.064287  0.078585 -0.027143)
 78:   3282.29   0.044611  225.45  0.004241  (-0.055412 -0.025765 -0.022517)
 79:   3324.76   0.169757  857.88  0.015934  ( 0.030569 -0.049147 -0.112177)
 80:   3348.63   0.030421  153.73  0.002835  (-0.032380  0.026200  0.033167)
 81:   3353.47   0.064270  324.80  0.005981  (-0.027147 -0.070749 -0.015441)
 82:   3366.70   0.016089   81.31  0.001491  ( 0.007222 -0.017608  0.033602)
 83:   3387.09   0.093129  470.64  0.008580  (-0.046988  0.072615 -0.033160)
 84:   3399.89   0.045424  229.56  0.004169  (-0.013538 -0.044643  0.044644)
 85:   3438.48   0.046753  236.27  0.004243  ( 0.027773  0.056189  0.017737)
 86:   3451.98   0.009349   47.25  0.000845  (-0.003199  0.003660 -0.028663)
 87:   3520.07   0.032887  166.20  0.002916  (-0.052839  0.006395  0.009095)
 88:   3542.86   0.036303  183.46  0.003198  (-0.001842 -0.001625 -0.056495)
 89:   3686.87   0.003249   16.42  0.000275  ( 0.003283 -0.016204 -0.001277)

* The epsilon (eps) is given for a Dirac delta lineshape.
** The dipole moment derivative (T) already includes vibrational overlap.

The first frequency considered to be a vibration is 6
The total number of vibrations considered is 84


--------------------------
THERMOCHEMISTRY AT 298.15K
--------------------------

Temperature         ... 298.15 K
Pressure            ... 1.00 atm
Total Mass          ... 180.15 AMU

Throughout the following assumptions are being made:
  (1) The electronic state is orbitally nondegenerate
  (2) There are no thermally accessible electronically excited states
  (3) Hindered rotations indicated by low frequency modes are not
      treated as such but are treated as vibrations and this may
      cause some error
  (4) All equations used are the standard statistical mechanics
      equations for an ideal gas
  (5) All vibrations are strictly harmonic

freq.      64.16  E(vib)   ...       0.51 
freq.      79.62  E(vib)   ...       0.49 
freq.      88.23  E(vib)   ...       0.48 
freq.     104.83  E(vib)   ...       0.46 
freq.     112.12  E(vib)   ...       0.45 
freq.     126.11  E(vib)   ...       0.43 
freq.     137.60  E(vib)   ...       0.42 
freq.     149.10  E(vib)   ...       0.40 
freq.     165.42  E(vib)   ...       0.39 
freq.     170.77  E(vib)   ...       0.38 
freq.     186.51  E(vib)   ...       0.37 
freq.     190.43  E(vib)   ...       0.36 
freq.     202.19  E(vib)   ...       0.35 
freq.     207.40  E(vib)   ...       0.34 
freq.     235.15  E(vib)   ...       0.32 
freq.     247.27  E(vib)   ...       0.31 
freq.     272.67  E(vib)   ...       0.29 
freq.     287.31  E(vib)   ...       0.27 
freq.     305.48  E(vib)   ...       0.26 
freq.     313.58  E(vib)   ...       0.25 
freq.     329.96  E(vib)   ...       0.24 
freq.     332.45  E(vib)   ...       0.24 
freq.     351.18  E(vib)   ...       0.23 
freq.     360.14  E(vib)   ...       0.22 
freq.     364.36  E(vib)   ...       0.22 
freq.     377.87  E(vib)   ...       0.21 
freq.     390.02  E(vib)   ...       0.20 
freq.     424.95  E(vib)   ...       0.18 
freq.     476.10  E(vib)   ...       0.15 
freq.     489.16  E(vib)   ...       0.15 
freq.     506.38  E(vib)   ...       0.14 
freq.     532.61  E(vib)   ...       0.13 
freq.     544.78  E(vib)   ...       0.12 
freq.     551.28  E(vib)   ...       0.12 
freq.     557.59  E(vib)   ...       0.12 
freq.     574.56  E(vib)   ...       0.11 
freq.     596.99  E(vib)   ...       0.10 
freq.     615.34  E(vib)   ...       0.10 
freq.     640.12  E(vib)   ...       0.09 
freq.     660.78  E(vib)   ...       0.08 
freq.     680.53  E(vib)   ...       0.08 
freq.     693.40  E(vib)   ...       0.07 
freq.     713.53  E(vib)   ...       0.07 
freq.     722.36  E(vib)   ...       0.07 
freq.     739.01  E(vib)   ...       0.06 
freq.     743.01  E(vib)   ...       0.06 
freq.     768.33  E(vib)   ...       0.06 
freq.     797.94  E(vib)   ...       0.05 
freq.     831.16  E(vib)   ...       0.04 
freq.     840.58  E(vib)   ...       0.04 
freq.     873.73  E(vib)   ...       0.04 
freq.     896.70  E(vib)   ...       0.03 
freq.     923.09  E(vib)   ...       0.03 
freq.     959.50  E(vib)   ...       0.03 
freq.    1443.08  E(vib)   ...       0.00 
freq.    1484.21  E(vib)   ...       0.00 
freq.    1512.12  E(vib)   ...       0.00 
freq.    1519.97  E(vib)   ...       0.00 
freq.    1526.24  E(vib)   ...       0.00 
freq.    1533.99  E(vib)   ...       0.00 
freq.    1538.48  E(vib)   ...       0.00 
freq.    1547.83  E(vib)   ...       0.00 
freq.    1558.51  E(vib)   ...       0.00 
freq.    1579.34  E(vib)   ...       0.00 
freq.    2998.99  E(vib)   ...       0.00 
freq.    3050.71  E(vib)   ...       0.00 
freq.    3067.97  E(vib)   ...       0.00 
freq.    3129.61  E(vib)   ...       0.00 
freq.    3161.27  E(vib)   ...       0.00 
freq.    3191.86  E(vib)   ...       0.00 
freq.    3220.81  E(vib)   ...       0.00 
freq.    3250.05  E(vib)   ...       0.00 
freq.    3282.29  E(vib)   ...       0.00 
freq.    3324.76  E(vib)   ...       0.00 
freq.    3348.63  E(vib)   ...       0.00 
freq.    3353.47  E(vib)   ...       0.00 
freq.    3366.70  E(vib)   ...       0.00 
freq.    3387.09  E(vib)   ...       0.00 
freq.    3399.89  E(vib)   ...       0.00 
freq.    3438.48  E(vib)   ...       0.00 
freq.    3451.98  E(vib)   ...       0.00 
freq.    3520.07  E(vib)   ...       0.00 
freq.    3542.86  E(vib)   ...       0.00 
freq.    3686.87  E(vib)   ...       0.00 

------------
INNER ENERGY
------------

The inner energy is: U= E(el) + E(ZPE) + E(vib) + E(rot) + E(trans)
    E(el)   - is the total energy from the electronic structure calculation
              = E(kin-el) + E(nuc-el) + E(el-el) + E(nuc-nuc)
    E(ZPE)  - the the zero temperature vibrational energy from the frequency calculation
    E(vib)  - the the finite temperature correction to E(ZPE) due to population
              of excited vibrational states
    E(rot)  - is the rotational thermal energy
    E(trans)- is the translational thermal energy

Summary of contributions to the inner energy U:
Electronic energy                ...  -1023.44712545 Eh
Zero point energy                ...      0.24131165 Eh     151.43 kcal/mol
Thermal vibrational correction   ...      0.01814119 Eh      11.38 kcal/mol
Thermal rotational correction    ...      0.00141627 Eh       0.89 kcal/mol
Thermal translational correction ...      0.00141627 Eh       0.89 kcal/mol
-----------------------------------------------------------------------
Total thermal energy                  -1023.18484007 Eh


Summary of corrections to the electronic energy:
(perhaps to be used in another calculation)
Total thermal correction                  0.02097373 Eh      13.16 kcal/mol
Non-thermal (ZPE) correction              0.24131165 Eh     151.43 kcal/mol
-----------------------------------------------------------------------
Total correction                          0.26228538 Eh     164.59 kcal/mol


--------
ENTHALPY
--------

The enthalpy is H = U + kB*T
                kB is Boltzmann's constant
Total free energy                 ...  -1023.18484007 Eh 
Thermal Enthalpy correction       ...      0.00094421 Eh       0.59 kcal/mol
-----------------------------------------------------------------------
Total Enthalpy                    ...  -1023.18389586 Eh


Note: Only C1 symmetry has been detected, increase convergence thresholds 
      if your molecule has a higher symmetry. Symmetry factor of 1.0 is   
      used for the rotational entropy correction. 
 

Note: Rotational entropy computed according to Herzberg 
Infrared and Raman Spectra, Chapter V,1, Van Nostrand Reinhold, 1945 
Point Group:  C1, Symmetry Number:   1  
Rotational constants in cm-1:     0.028824     0.014611     0.013083 

Vibrational entropy computed according to the QRRHO of S. Grimme
Chem.Eur.J. 2012 18 9955


-------
ENTROPY
-------

The entropy contributions are T*S = T*(S(el)+S(vib)+S(rot)+S(trans))
     S(el)   - electronic entropy
     S(vib)  - vibrational entropy
     S(rot)  - rotational entropy
     S(trans)- translational entropy
The entropies will be listed as multiplied by the temperature to get
units of energy

Electronic entropy                ...      0.00000000 Eh      0.00 kcal/mol
Vibrational entropy               ...      0.03129071 Eh     19.64 kcal/mol
Rotational entropy                ...      0.01522734 Eh      9.56 kcal/mol
Translational entropy             ...      0.01970489 Eh     12.36 kcal/mol
-----------------------------------------------------------------------
Final entropy term                ...      0.06622294 Eh     41.56 kcal/mol

In case the symmetry of your molecule has not been determined correctly
or in case you have a reason to use a different symmetry number we print 
out the resulting rotational entropy values for sn=1,12 :
 --------------------------------------------------------
|  sn= 1 | S(rot)=       0.01522734 Eh      9.56 kcal/mol|
|  sn= 2 | S(rot)=       0.01457288 Eh      9.14 kcal/mol|
|  sn= 3 | S(rot)=       0.01419005 Eh      8.90 kcal/mol|
|  sn= 4 | S(rot)=       0.01391843 Eh      8.73 kcal/mol|
|  sn= 5 | S(rot)=       0.01370774 Eh      8.60 kcal/mol|
|  sn= 6 | S(rot)=       0.01353560 Eh      8.49 kcal/mol|
|  sn= 7 | S(rot)=       0.01339005 Eh      8.40 kcal/mol|
|  sn= 8 | S(rot)=       0.01326397 Eh      8.32 kcal/mol|
|  sn= 9 | S(rot)=       0.01315276 Eh      8.25 kcal/mol|
|  sn=10 | S(rot)=       0.01305328 Eh      8.19 kcal/mol|
|  sn=11 | S(rot)=       0.01296329 Eh      8.13 kcal/mol|
|  sn=12 | S(rot)=       0.01288114 Eh      8.08 kcal/mol|
 --------------------------------------------------------


-------------------
GIBBS FREE ENERGY
-------------------

The Gibbs free energy is G = H - T*S

Total enthalpy                    ...  -1023.18389586 Eh 
Total entropy correction          ...     -0.06622294 Eh    -41.56 kcal/mol
-----------------------------------------------------------------------
Final Gibbs free energy         ...  -1023.25011880 Eh

For completeness - the Gibbs free energy minus the electronic energy
G-E(el)                           ...      0.19700665 Eh    123.62 kcal/mol



Timings for individual modules:

Sum of individual times         ...      231.640 sec (=   3.861 min)
Numerical frequency calculation ...      212.470 sec (=   3.541 min)  91.7 %
XTB module                      ...        9.758 sec (=   0.163 min)   4.2 %
ONIOM_Small energy and gradient ...        0.272 sec (=   0.005 min)   0.1 %
ONIOM_Large energy and gradient ...        9.140 sec (=   0.152 min)   3.9 %
                             ****ORCA TERMINATED NORMALLY****
TOTAL RUN TIME: 0 days 0 hours 3 minutes 50 seconds 776 msec
