 Entering Gaussian System
 *********************************************
 Gaussian 98:
 frequency output generated by the xtb code
 *********************************************
                         Standard orientation:
 --------------------------------------------------------------------
  Center     Atomic     Atomic              Coordinates (Angstroms)
  Number     Number      Type              X           Y           Z
 --------------------------------------------------------------------
    1          1             0        6.008004   -1.289304    1.352501
    2          8             0        5.486913   -0.446665    1.297430
    3          1             0        6.207231    0.208006    1.340856
    4          1             0        7.124156   -2.968985    4.722436
    5          8             0        6.395255   -3.419809    4.219346
    6          1             0        5.576129   -3.067108    4.656584
    7          1             0        8.178593    1.490758    1.435920
    8          8             0        8.065577    0.566337    1.731972
    9          1             0        8.501643   -0.003377    1.058703
   10          1             0        8.213705   -1.189150   -0.790021
   11          8             0        9.003729   -0.838726   -0.316191
   12          1             0        9.707399   -1.503997   -0.447140
   13          1             0        9.646907   -4.021591    2.140931
   14          8             0        9.349245   -3.822018    1.214165
   15          1             0       10.128406   -3.619781    0.678953
   16          1             0        6.742735    0.162312    4.309951
   17          8             0        7.708630    0.375556    4.291451
   18          1             0        7.941600    0.342260    3.320307
   19          1             0        8.049377   -1.948702    6.255199
   20          8             0        8.420168   -2.124254    5.367608
   21          1             0        8.296282   -1.253545    4.924746
   22          1             0        8.146072    0.555424    7.432300
   23          8             0        8.486920    1.240116    6.838398
   24          1             0        8.294302    0.876848    5.948956
   25          1             0        6.766743   -2.829051    2.686950
   26          8             0        6.916552   -2.615008    1.733736
   27          1             0        7.867743   -2.744113    1.563083
   28          1             0       10.428588   -2.784643   -1.872523
   29          8             0       10.903779   -2.760687   -0.997905
   30          1             0       11.769082   -2.399656   -1.219370
   31          1             0        9.076691   -5.080105    3.912686
   32          8             0        9.770459   -4.396321    3.789968
   33          1             0        9.522407   -3.697327    4.416619
   34          1             0        9.549171    0.812434   -0.727325
   35          8             0        9.626527    1.788775   -0.782017
   36          1             0        9.930107    1.937102   -1.689603
 --------------------------------------------------------------------
     1 basis functions        1 primitive gaussians
     1 alpha electrons        1 beta electrons
 
 Harmonic frequencies (cm**-1), IR intensities (KM/Mole),
 Raman scattering activities (A**4/amu), Raman depolarization ratios,
 reduced masses (AMU), force constants (mDyne/A) and normal coordinates:
                      1                      2                      3
                        a                      a                      a 
 Frequencies --   -43.9132               -28.3728               -21.1798
 Red. masses --    99.0000                99.0000                99.0000
 Frc consts  --    99.0000                99.0000                99.0000
 IR Inten    --    99.0000                99.0000                99.0000
 Raman Activ --     0.0000                 0.0000                 0.0000
 Depolar     --     0.0000                 0.0000                 0.0000
 Atom AN      X      Y      Z        X      Y      Z        X      Y      Z
   1   1    -0.00  -0.01  -0.13     0.00  -0.05  -0.05     0.02  -0.01  -0.02
   2   8    -0.04  -0.09  -0.81     0.05  -0.18  -0.10     0.20   0.02  -0.19
   3   1    -0.03  -0.01  -0.16     0.02  -0.05   0.00     0.07  -0.02  -0.04
   4   1     0.00  -0.00   0.03    -0.03   0.08  -0.05     0.02   0.03   0.04
   5   8    -0.01   0.03   0.11    -0.16   0.39  -0.22     0.01   0.12   0.24
   6   1    -0.00   0.01   0.03    -0.04   0.11  -0.06     0.01   0.03   0.07
   7   1    -0.04  -0.00   0.02    -0.01  -0.03   0.03     0.06  -0.05   0.01
   8   8    -0.17  -0.01   0.07    -0.01  -0.12   0.14     0.26  -0.19   0.04
   9   1    -0.03   0.00   0.02    -0.00  -0.03   0.03     0.05  -0.04  -0.01
  10   1    -0.02   0.01   0.02    -0.02  -0.03   0.03    -0.01   0.03  -0.07
  11   8    -0.07   0.04   0.08    -0.09  -0.10   0.11    -0.04   0.06  -0.25
  12   1    -0.02   0.01   0.01    -0.02  -0.02   0.01    -0.02   0.01  -0.06
  13   1    -0.00  -0.02   0.00     0.03   0.01   0.00    -0.01   0.05   0.01
  14   8    -0.03  -0.08   0.02     0.14  -0.00  -0.01    -0.09   0.27   0.06
  15   1    -0.01  -0.01   0.00     0.04   0.00   0.00    -0.03   0.05   0.00
  16   1     0.02  -0.01   0.04     0.03   0.05   0.05     0.01  -0.02  -0.00
  17   8     0.09  -0.04   0.08     0.12   0.17   0.17     0.06  -0.06   0.02
  18   1     0.00  -0.01   0.02     0.02   0.03   0.04     0.03  -0.02   0.01
  19   1     0.03  -0.01   0.02    -0.03  -0.01   0.01     0.08   0.00   0.02
  20   8     0.08  -0.06   0.07    -0.06   0.04   0.04     0.22   0.00   0.03
  21   1     0.02  -0.01   0.02     0.01   0.03   0.04     0.04  -0.00   0.01
  22   1     0.04  -0.01   0.02     0.08   0.00   0.05    -0.13   0.01   0.02
  23   8     0.13  -0.03   0.06     0.23   0.05   0.19    -0.36  -0.01   0.12
  24   1     0.03  -0.01   0.02     0.05   0.02   0.05    -0.06  -0.01   0.03
  25   1     0.03   0.06   0.04    -0.03  -0.04  -0.10    -0.07  -0.04   0.02
  26   8     0.15   0.23   0.19    -0.10  -0.34  -0.42    -0.34  -0.28   0.05
  27   1     0.03   0.02   0.04    -0.01  -0.05  -0.08    -0.08  -0.03   0.01
  28   1    -0.03   0.01   0.00     0.01   0.02  -0.01    -0.04  -0.02  -0.04
  29   8    -0.11   0.02   0.01     0.04   0.09  -0.02    -0.14  -0.07  -0.17
  30   1    -0.03   0.00  -0.00     0.00   0.04  -0.00    -0.03  -0.03  -0.05
  31   1     0.01  -0.01   0.01     0.01   0.02   0.00     0.03   0.01  -0.00
  32   8     0.02  -0.05   0.02     0.01   0.08   0.03     0.10   0.05  -0.02
  33   1     0.01  -0.01   0.01    -0.01   0.02   0.01     0.03   0.01  -0.00
  34   1    -0.01   0.01   0.02    -0.04  -0.02   0.02     0.01   0.02  -0.00
  35   8    -0.05   0.03   0.08    -0.18  -0.09   0.09     0.11   0.09   0.08
  36   1    -0.01   0.01   0.02    -0.05  -0.02   0.02     0.03   0.04   0.02
                      4                      5                      6
                        a                      a                      a 
 Frequencies --    18.4674                13.5292                22.0438
 Red. masses --    99.0000                99.0000                99.0000
 Frc consts  --    99.0000                99.0000                99.0000
 IR Inten    --    99.0000                99.0000                99.0000
 Raman Activ --     0.0000                 0.0000                 0.0000
 Depolar     --     0.0000                 0.0000                 0.0000
 Atom AN      X      Y      Z        X      Y      Z        X      Y      Z
   1   1    -0.02   0.02   0.00     0.02   0.05   0.01    -0.04  -0.06   0.01
   2   8    -0.08   0.08   0.02     0.03   0.16   0.10    -0.16  -0.25   0.07
   3   1    -0.02   0.02  -0.01    -0.00   0.05   0.03    -0.04  -0.06   0.02
   4   1    -0.07  -0.01   0.00    -0.02   0.05  -0.02    -0.02   0.04   0.02
   5   8    -0.32   0.10  -0.03    -0.12   0.37  -0.12    -0.13   0.19   0.11
   6   1    -0.08   0.03  -0.01    -0.02   0.11  -0.03    -0.03   0.06   0.03
   7   1     0.00  -0.03  -0.01     0.01   0.03   0.00    -0.10   0.07  -0.03
   8   8     0.02  -0.13  -0.05     0.05   0.12   0.03    -0.35   0.27  -0.17
   9   1    -0.00  -0.03  -0.02    -0.00   0.02   0.00    -0.06   0.08  -0.04
  10   1     0.01  -0.00  -0.04    -0.04  -0.03   0.04    -0.00   0.05  -0.00
  11   8     0.01   0.01  -0.15    -0.12  -0.09   0.10    -0.03   0.21   0.03
  12   1     0.00   0.00  -0.02    -0.03  -0.02   0.02    -0.01   0.04   0.03
  13   1     0.04   0.09   0.07     0.02  -0.03   0.01    -0.00  -0.02   0.02
  14   8     0.15   0.46   0.32     0.07  -0.16   0.04    -0.04  -0.09   0.08
  15   1     0.04   0.08   0.07     0.01  -0.04   0.01    -0.02  -0.00   0.02
  16   1    -0.00  -0.07  -0.02     0.03  -0.04  -0.00     0.03  -0.01  -0.02
  17   8    -0.01  -0.27  -0.07     0.12  -0.16   0.02     0.13  -0.03  -0.11
  18   1    -0.00  -0.06  -0.02     0.03  -0.02   0.00     0.01   0.02  -0.03
  19   1    -0.03  -0.06   0.00     0.07  -0.04  -0.01     0.06  -0.00  -0.02
  20   8    -0.10  -0.25   0.03     0.22  -0.16  -0.05     0.18  -0.04  -0.12
  21   1    -0.01  -0.06   0.00     0.06  -0.03  -0.00     0.05  -0.01  -0.03
  22   1     0.09  -0.04  -0.04    -0.15  -0.01   0.03    -0.00  -0.04  -0.01
  23   8     0.27  -0.15  -0.21    -0.43  -0.09   0.15     0.04  -0.15  -0.03
  24   1     0.04  -0.04  -0.05    -0.07  -0.03   0.03     0.02  -0.03  -0.01
  25   1    -0.03   0.03   0.00     0.04   0.07  -0.02    -0.03  -0.04   0.00
  26   8    -0.04   0.12   0.03     0.24   0.26  -0.08    -0.12  -0.25  -0.02
  27   1    -0.00   0.06   0.03     0.06   0.04  -0.01    -0.03  -0.06   0.00
  28   1     0.02  -0.00   0.00    -0.03  -0.01  -0.00    -0.01   0.03   0.05
  29   8     0.08  -0.00   0.02    -0.11  -0.03  -0.01    -0.05   0.13   0.20
  30   1     0.02   0.01   0.01    -0.03  -0.00  -0.01    -0.01   0.03   0.05
  31   1     0.04  -0.01   0.04     0.06  -0.02   0.02     0.03  -0.03   0.02
  32   8     0.14  -0.02   0.20     0.19  -0.06   0.04     0.09  -0.09   0.05
  33   1     0.01  -0.01   0.05     0.04  -0.01   0.00     0.01  -0.02   0.00
  34   1    -0.02   0.01  -0.03    -0.03  -0.04  -0.04     0.08   0.03  -0.02
  35   8    -0.12   0.05  -0.10    -0.13  -0.15  -0.22     0.42   0.09  -0.10
  36   1    -0.03   0.02  -0.03    -0.04  -0.05  -0.06     0.12   0.01  -0.02
                      7                      8                      9
                        a                      a                      a 
 Frequencies --    28.0360                27.5002                30.9834
 Red. masses --    99.0000                99.0000                99.0000
 Frc consts  --    99.0000                99.0000                99.0000
 IR Inten    --    99.0000                99.0000                99.0000
 Raman Activ --     0.0000                 0.0000                 0.0000
 Depolar     --     0.0000                 0.0000                 0.0000
 Atom AN      X      Y      Z        X      Y      Z        X      Y      Z
   1   1    -0.07   0.01   0.01     0.02   0.01  -0.01    -0.05   0.02  -0.00
   2   8    -0.36  -0.03   0.10     0.09   0.06  -0.09    -0.16   0.09  -0.06
   3   1    -0.10   0.01   0.02     0.02   0.01  -0.01    -0.04   0.02  -0.02
   4   1     0.02   0.02  -0.01     0.02  -0.04  -0.01     0.03   0.02   0.02
   5   8     0.08   0.10  -0.08     0.12  -0.25  -0.06     0.09   0.06   0.14
   6   1     0.02   0.03  -0.02     0.03  -0.07  -0.02     0.02   0.01   0.04
   7   1    -0.04  -0.06  -0.01     0.01   0.03   0.03    -0.03  -0.01  -0.02
   8   8    -0.24  -0.24  -0.03     0.04   0.12   0.11    -0.10  -0.03  -0.06
   9   1    -0.06  -0.07   0.00    -0.01   0.03   0.01    -0.01  -0.01  -0.00
  10   1    -0.02  -0.04  -0.01    -0.10  -0.03   0.04     0.05  -0.07   0.04
  11   8    -0.07  -0.19  -0.01    -0.37  -0.10   0.10     0.16  -0.19   0.16
  12   1    -0.02  -0.04  -0.01    -0.10  -0.03   0.02     0.06  -0.03   0.05
  13   1     0.01   0.04  -0.01     0.02   0.05   0.01    -0.05   0.05  -0.03
  14   8     0.05   0.21  -0.05     0.09   0.27   0.06    -0.13   0.29  -0.12
  15   1     0.02   0.02  -0.02     0.03   0.05   0.01    -0.02   0.04  -0.02
  16   1     0.01  -0.01   0.01    -0.02   0.01   0.02     0.03   0.02   0.00
  17   8     0.05  -0.04   0.00    -0.09   0.05   0.10     0.13   0.08  -0.03
  18   1    -0.00  -0.02  -0.00    -0.02   0.02   0.03     0.02   0.02  -0.01
  19   1     0.03  -0.00   0.00    -0.05  -0.00   0.01     0.06   0.02  -0.01
  20   8     0.10   0.00  -0.00    -0.13   0.01   0.06     0.19   0.07  -0.07
  21   1     0.02   0.00   0.00    -0.03   0.00   0.02     0.04   0.02  -0.02
  22   1    -0.03   0.05  -0.01     0.02  -0.03   0.03    -0.03  -0.06   0.03
  23   8    -0.08   0.18  -0.05     0.02  -0.07   0.12    -0.04  -0.21   0.16
  24   1    -0.01   0.03  -0.01    -0.00  -0.01   0.03     0.00  -0.04   0.03
  25   1     0.02   0.05  -0.01    -0.00  -0.01  -0.01    -0.04   0.02   0.02
  26   8     0.05   0.21  -0.05    -0.04  -0.01  -0.02    -0.24   0.05   0.07
  27   1     0.01   0.07  -0.01    -0.01   0.02  -0.00    -0.06   0.05   0.01
  28   1     0.00  -0.01  -0.05    -0.02   0.06  -0.02     0.12   0.01   0.04
  29   8     0.01  -0.05  -0.19    -0.10   0.23  -0.06     0.43   0.02   0.20
  30   1    -0.00  -0.00  -0.05    -0.04   0.11   0.00     0.10   0.03   0.07
  31   1     0.02   0.01  -0.02     0.00   0.01  -0.01    -0.05  -0.01  -0.05
  32   8     0.07   0.05  -0.09     0.02   0.05   0.01    -0.15  -0.06  -0.20
  33   1     0.02   0.01  -0.02     0.01   0.00   0.01    -0.02  -0.02  -0.04
  34   1     0.06  -0.05   0.09     0.02  -0.08  -0.07    -0.02  -0.05  -0.02
  35   8     0.34  -0.21   0.45     0.35  -0.36  -0.35    -0.20  -0.17  -0.18
  36   1     0.10  -0.04   0.12     0.11  -0.13  -0.09    -0.07  -0.05  -0.05
                     10                     11                     12
                        a                      a                      a 
 Frequencies --    50.3917                43.0650                37.1635
 Red. masses --    99.0000                99.0000                99.0000
 Frc consts  --    99.0000                99.0000                99.0000
 IR Inten    --    99.0000                99.0000                99.0000
 Raman Activ --     0.0000                 0.0000                 0.0000
 Depolar     --     0.0000                 0.0000                 0.0000
 Atom AN      X      Y      Z        X      Y      Z        X      Y      Z
   1   1     0.02   0.03  -0.01     0.03  -0.04   0.04     0.00   0.01  -0.01
   2   8     0.13   0.15  -0.07     0.07  -0.18   0.10     0.04   0.05  -0.03
   3   1     0.04   0.03  -0.01     0.01  -0.04   0.02     0.02   0.01   0.01
   4   1    -0.01  -0.00   0.00    -0.06   0.04   0.08     0.01  -0.03  -0.01
   5   8    -0.09   0.03   0.04    -0.26   0.23   0.27     0.03  -0.06  -0.04
   6   1    -0.02   0.01   0.02    -0.06   0.07   0.06     0.01  -0.01  -0.01
   7   1     0.03   0.03   0.02     0.01  -0.03   0.01     0.00   0.02   0.03
   8   8     0.09   0.12   0.08     0.07  -0.14   0.04     0.02   0.06   0.10
   9   1     0.02   0.02   0.02     0.01  -0.03  -0.00     0.00   0.02   0.02
  10   1    -0.02  -0.04   0.05    -0.02  -0.01  -0.03    -0.01   0.01   0.03
  11   8    -0.09  -0.12   0.18    -0.07  -0.01  -0.10    -0.06   0.04   0.09
  12   1    -0.02  -0.02   0.04    -0.01   0.01  -0.03    -0.01   0.01   0.03
  13   1    -0.03   0.00  -0.03     0.02  -0.02  -0.06    -0.02  -0.01  -0.01
  14   8    -0.22  -0.16  -0.15     0.15  -0.09  -0.27    -0.06   0.06  -0.02
  15   1    -0.06  -0.02  -0.04     0.04  -0.00  -0.05    -0.01   0.01   0.00
  16   1    -0.06  -0.07  -0.02    -0.02  -0.04  -0.00     0.04  -0.06   0.02
  17   8    -0.23  -0.25  -0.02    -0.07  -0.15   0.02     0.14  -0.22   0.09
  18   1    -0.05  -0.03  -0.00    -0.01  -0.04   0.01     0.03  -0.03   0.02
  19   1     0.05  -0.03  -0.02     0.02   0.00   0.04     0.02  -0.07   0.02
  20   8     0.09  -0.09  -0.13    -0.02  -0.03   0.15     0.08  -0.26   0.09
  21   1    -0.01  -0.02  -0.03    -0.01  -0.01   0.03     0.04  -0.06   0.03
  22   1     0.05   0.00  -0.05     0.00   0.01  -0.01    -0.03   0.18  -0.03
  23   8     0.12  -0.02  -0.26     0.00   0.02  -0.08    -0.05   0.61  -0.22
  24   1    -0.00  -0.01  -0.05    -0.01  -0.00  -0.01     0.01   0.11  -0.04
  25   1    -0.04  -0.01   0.00     0.05   0.00   0.07    -0.03  -0.02  -0.02
  26   8    -0.17  -0.05  -0.00     0.23  -0.04   0.27    -0.13  -0.08  -0.07
  27   1    -0.05  -0.03  -0.01     0.05  -0.01   0.06    -0.03  -0.01  -0.02
  28   1     0.03   0.01   0.04     0.05   0.07  -0.04     0.03   0.04   0.03
  29   8     0.08   0.05   0.20     0.17   0.28  -0.15     0.08   0.17   0.15
  30   1     0.02   0.03   0.07     0.03   0.11  -0.02     0.02   0.06   0.05
  31   1     0.09   0.10   0.00    -0.10   0.04  -0.04    -0.02  -0.09  -0.04
  32   8     0.27   0.46  -0.09    -0.36   0.14  -0.14    -0.06  -0.39  -0.12
  33   1     0.05   0.12  -0.04    -0.08   0.03  -0.03    -0.01  -0.11  -0.01
  34   1    -0.00  -0.04   0.04     0.00  -0.01  -0.02    -0.01   0.00  -0.01
  35   8     0.01  -0.14   0.20     0.09  -0.05  -0.11    -0.04   0.01  -0.05
  36   1     0.00  -0.03   0.05     0.03  -0.02  -0.03    -0.01  -0.00  -0.02
                     13                     14                     15
                        a                      a                      a 
 Frequencies --    55.2976                63.7119                57.4814
 Red. masses --    99.0000                99.0000                99.0000
 Frc consts  --    99.0000                99.0000                99.0000
 IR Inten    --    99.0000                99.0000                99.0000
 Raman Activ --     0.0000                 0.0000                 0.0000
 Depolar     --     0.0000                 0.0000                 0.0000
 Atom AN      X      Y      Z        X      Y      Z        X      Y      Z
   1   1    -0.05   0.01  -0.01    -0.02   0.01   0.01     0.01   0.02  -0.00
   2   8    -0.23   0.02   0.01    -0.08   0.04   0.02     0.03   0.08   0.01
   3   1    -0.06   0.01   0.01    -0.02   0.01  -0.00     0.01   0.02  -0.00
   4   1     0.03  -0.02  -0.02    -0.02   0.04   0.02     0.03   0.01  -0.02
   5   8     0.13  -0.05  -0.14    -0.11   0.17   0.07     0.14  -0.00  -0.05
   6   1     0.03  -0.02  -0.04    -0.02   0.05   0.02     0.03  -0.00  -0.01
   7   1    -0.03  -0.08   0.04     0.01  -0.06   0.04     0.04  -0.04  -0.03
   8   8    -0.06  -0.33   0.10     0.05  -0.25   0.12     0.12  -0.14  -0.10
   9   1    -0.01  -0.06   0.01     0.01  -0.05   0.02    -0.03  -0.05  -0.05
  10   1     0.03   0.04  -0.06     0.01   0.01  -0.03    -0.11  -0.02  -0.12
  11   8     0.10   0.17  -0.17     0.02   0.05  -0.09    -0.46  -0.03  -0.43
  12   1     0.03   0.04  -0.02     0.01   0.01  -0.02    -0.12  -0.02  -0.05
  13   1    -0.04  -0.00  -0.01     0.00  -0.04  -0.04    -0.02  -0.04   0.02
  14   8    -0.19  -0.16  -0.06    -0.09  -0.10  -0.09    -0.04  -0.15   0.08
  15   1    -0.05  -0.02  -0.02    -0.03  -0.02  -0.04    -0.01  -0.01   0.03
  16   1     0.04  -0.03   0.05    -0.10   0.04   0.03     0.03   0.02  -0.03
  17   8     0.14  -0.15   0.15    -0.41   0.20   0.11     0.11   0.07  -0.10
  18   1     0.03  -0.06   0.04    -0.09   0.01   0.03     0.03   0.00  -0.02
  19   1    -0.03  -0.05   0.05    -0.02   0.03   0.01     0.02   0.03  -0.02
  20   8    -0.02  -0.12   0.22    -0.10   0.15   0.02     0.07   0.09  -0.07
  21   1     0.01  -0.02   0.07    -0.05   0.03   0.01     0.02   0.02  -0.02
  22   1    -0.00   0.02   0.04     0.05  -0.01   0.01    -0.00  -0.03  -0.01
  23   8     0.00   0.07   0.15     0.08   0.02   0.04     0.02  -0.11   0.00
  24   1     0.02   0.00   0.04    -0.02   0.02   0.01     0.01  -0.02  -0.01
  25   1    -0.01   0.02  -0.03    -0.01   0.03   0.02     0.01   0.01  -0.01
  26   8    -0.06   0.11  -0.12    -0.03   0.08   0.07     0.05   0.08  -0.04
  27   1    -0.02  -0.00  -0.04    -0.01   0.02   0.02     0.01  -0.00  -0.01
  28   1     0.01  -0.02   0.04     0.03   0.01   0.01     0.07   0.03   0.08
  29   8     0.03  -0.05   0.17     0.08   0.03   0.08     0.13   0.21   0.40
  30   1     0.02  -0.03   0.04     0.02   0.01   0.03     0.01   0.14   0.15
  31   1     0.01   0.09   0.02     0.13  -0.11  -0.04    -0.03  -0.02   0.03
  32   8     0.01   0.39   0.04     0.46  -0.38  -0.20    -0.09  -0.10   0.10
  33   1     0.01   0.09   0.01     0.11  -0.10  -0.04    -0.02  -0.02   0.02
  34   1     0.02   0.04  -0.07     0.01   0.01  -0.02    -0.05  -0.00   0.00
  35   8     0.14   0.14  -0.37     0.12   0.02  -0.14    -0.05  -0.01   0.21
  36   1     0.04   0.01  -0.10     0.03  -0.01  -0.04     0.00   0.03   0.06
                     16                     17                     18
                        a                      a                      a 
 Frequencies --    71.1637                87.8486               119.1360
 Red. masses --    99.0000                99.0000                99.0000
 Frc consts  --    99.0000                99.0000                99.0000
 IR Inten    --    99.0000                99.0000                99.0000
 Raman Activ --     0.0000                 0.0000                 0.0000
 Depolar     --     0.0000                 0.0000                 0.0000
 Atom AN      X      Y      Z        X      Y      Z        X      Y      Z
   1   1    -0.00  -0.01   0.02     0.00  -0.01   0.00     0.04  -0.04   0.00
   2   8     0.00  -0.03   0.03    -0.02  -0.06   0.01     0.11  -0.19   0.03
   3   1     0.00  -0.01   0.01    -0.01  -0.01   0.00     0.02  -0.04   0.01
   4   1    -0.10  -0.06   0.01    -0.02  -0.01  -0.04    -0.01   0.00   0.00
   5   8    -0.41  -0.27   0.06    -0.11  -0.10  -0.03    -0.02   0.05  -0.04
   6   1    -0.10  -0.06   0.01    -0.02  -0.02   0.00    -0.01   0.02  -0.02
   7   1     0.00   0.00  -0.03     0.01  -0.06   0.05    -0.01   0.04   0.01
   8   8     0.01   0.02  -0.09     0.05  -0.23   0.20    -0.01   0.14   0.03
   9   1    -0.01  -0.00  -0.02     0.01  -0.05   0.05    -0.02   0.04  -0.00
  10   1    -0.01  -0.02  -0.02     0.01   0.02   0.01    -0.05   0.02  -0.02
  11   8    -0.05  -0.06  -0.08     0.04   0.06   0.05    -0.20   0.06  -0.10
  12   1    -0.01  -0.01  -0.02     0.01   0.01   0.01    -0.07  -0.01   0.02
  13   1     0.01   0.00  -0.02    -0.00   0.00   0.03     0.02   0.07  -0.05
  14   8    -0.02  -0.04  -0.08     0.05   0.03   0.12     0.07   0.35  -0.17
  15   1    -0.02  -0.00  -0.03     0.02   0.01   0.04     0.02   0.05  -0.06
  16   1     0.10   0.08   0.01    -0.05   0.02   0.04    -0.02  -0.01   0.01
  17   8     0.42   0.24  -0.00    -0.20   0.07   0.15    -0.09  -0.00   0.06
  18   1     0.09   0.05  -0.00    -0.05   0.01   0.04    -0.02   0.01   0.02
  19   1    -0.07  -0.03  -0.06     0.14  -0.03  -0.14     0.00  -0.02   0.01
  20   8    -0.26  -0.16  -0.21     0.29  -0.05  -0.69     0.00  -0.05   0.04
  21   1    -0.01  -0.03  -0.04     0.02  -0.00  -0.14    -0.00  -0.01   0.01
  22   1    -0.04   0.05   0.04     0.01   0.05   0.03     0.01   0.01   0.02
  23   8    -0.07   0.18   0.22     0.06   0.15   0.08     0.02   0.04   0.07
  24   1     0.03   0.04   0.05    -0.00   0.03   0.03    -0.01   0.01   0.02
  25   1    -0.01  -0.02   0.04     0.01  -0.00   0.00     0.06  -0.00  -0.00
  26   8     0.01   0.00   0.21     0.08   0.03   0.03     0.25  -0.02  -0.01
  27   1     0.00  -0.00   0.05     0.02  -0.01   0.01     0.06  -0.01  -0.01
  28   1     0.03   0.00  -0.00    -0.02   0.00   0.01    -0.04  -0.13   0.11
  29   8     0.08   0.02   0.00    -0.06   0.01   0.05    -0.09  -0.49   0.39
  30   1     0.02   0.02   0.01    -0.01  -0.00   0.01    -0.01  -0.16   0.08
  31   1     0.09   0.01  -0.02    -0.06   0.02   0.04    -0.02   0.02  -0.09
  32   8     0.29   0.13  -0.09    -0.21   0.04   0.11    -0.05   0.07  -0.31
  33   1     0.04   0.03  -0.03    -0.07   0.04  -0.02    -0.00   0.00  -0.06
  34   1    -0.01  -0.01   0.00     0.01   0.01  -0.01    -0.01   0.02  -0.01
  35   8    -0.02  -0.04   0.04     0.04   0.04  -0.10     0.02   0.07   0.00
  36   1    -0.00  -0.00   0.01     0.01  -0.01  -0.03     0.01   0.02   0.00
                     19                     20                     21
                        a                      a                      a 
 Frequencies --   149.8796               188.5508               264.3637
 Red. masses --    99.0000                99.0000                99.0000
 Frc consts  --    99.0000                99.0000                99.0000
 IR Inten    --    99.0000                99.0000                99.0000
 Raman Activ --     0.0000                 0.0000                 0.0000
 Depolar     --     0.0000                 0.0000                 0.0000
 Atom AN      X      Y      Z        X      Y      Z        X      Y      Z
   1   1     0.01  -0.03   0.01    -0.04   0.08  -0.01     0.00   0.00  -0.00
   2   8     0.01  -0.13   0.03    -0.09   0.37  -0.05     0.02   0.01   0.01
   3   1    -0.00  -0.03   0.00    -0.01   0.08   0.00     0.01   0.00   0.01
   4   1     0.00   0.03  -0.01     0.00  -0.00   0.01     0.01   0.00  -0.01
   5   8     0.03   0.03  -0.02    -0.02  -0.05   0.13    -0.01   0.01   0.00
   6   1     0.00   0.00  -0.01    -0.00  -0.02   0.05     0.01   0.00   0.01
   7   1     0.03  -0.07   0.04    -0.03  -0.02   0.05    -0.01   0.00   0.01
   8   8     0.12  -0.30   0.14    -0.14  -0.08   0.14    -0.02   0.01   0.01
   9   1     0.04  -0.08   0.04    -0.03  -0.01   0.03    -0.00   0.01  -0.00
  10   1     0.02   0.01   0.08    -0.05   0.01   0.02    -0.00   0.01  -0.00
  11   8     0.09   0.04   0.28    -0.19   0.04   0.09     0.03  -0.02  -0.03
  12   1     0.01  -0.00   0.08    -0.06  -0.00   0.04    -0.02  -0.03   0.00
  13   1    -0.01   0.02  -0.01     0.13  -0.03  -0.04    -0.00  -0.00  -0.00
  14   8    -0.06   0.13  -0.02     0.60  -0.17  -0.17    -0.02   0.00  -0.00
  15   1    -0.01   0.02  -0.01     0.16  -0.06  -0.03    -0.00  -0.02  -0.01
  16   1     0.08  -0.01  -0.03     0.03   0.02   0.03     0.02   0.00   0.01
  17   8     0.33  -0.11  -0.10     0.11   0.02   0.08     0.06   0.01   0.04
  18   1     0.09  -0.04  -0.03     0.02  -0.00   0.02     0.01   0.01   0.01
  19   1    -0.07   0.09  -0.04     0.00   0.02  -0.01    -0.06  -0.03  -0.03
  20   8    -0.22   0.32  -0.12    -0.03   0.07  -0.05     0.04  -0.01  -0.02
  21   1    -0.04   0.08  -0.04    -0.00   0.02  -0.01     0.03   0.01   0.01
  22   1    -0.04  -0.05  -0.09    -0.02  -0.02  -0.06     0.80  -0.40  -0.00
  23   8    -0.11  -0.14  -0.29    -0.06  -0.07  -0.18    -0.23   0.08  -0.03
  24   1     0.01  -0.03  -0.08    -0.00  -0.01  -0.05    -0.26   0.11   0.00
  25   1     0.02   0.00   0.01    -0.06  -0.01   0.01    -0.00  -0.00   0.00
  26   8     0.10   0.01   0.03    -0.26  -0.06   0.01    -0.01   0.00   0.01
  27   1     0.02  -0.00   0.01    -0.06   0.02   0.02    -0.00   0.00   0.00
  28   1    -0.09   0.03   0.06    -0.01  -0.05   0.02     0.00  -0.03  -0.00
  29   8    -0.33   0.16   0.22     0.05  -0.21   0.05     0.00  -0.05  -0.01
  30   1    -0.09   0.05   0.05     0.02  -0.08  -0.01    -0.06   0.15   0.02
  31   1     0.01  -0.01  -0.03    -0.02   0.01  -0.01    -0.00   0.00   0.01
  32   8     0.05  -0.03  -0.13    -0.02  -0.00   0.01    -0.01  -0.00   0.01
  33   1     0.01  -0.01  -0.04    -0.01   0.00  -0.01     0.00   0.00   0.00
  34   1     0.00   0.00   0.01     0.00   0.04  -0.01     0.02   0.00  -0.00
  35   8    -0.01   0.02  -0.02     0.04   0.16  -0.05     0.03   0.01   0.00
  36   1    -0.01  -0.01  -0.01     0.02   0.04  -0.01    -0.06   0.01  -0.02
                     22                     23                     24
                        a                      a                      a 
 Frequencies --   332.0533               166.3363               225.0429
 Red. masses --    99.0000                99.0000                99.0000
 Frc consts  --    99.0000                99.0000                99.0000
 IR Inten    --    99.0000                99.0000                99.0000
 Raman Activ --     0.0000                 0.0000                 0.0000
 Depolar     --     0.0000                 0.0000                 0.0000
 Atom AN      X      Y      Z        X      Y      Z        X      Y      Z
   1   1     0.00  -0.00  -0.00    -0.00   0.00   0.00     0.11   0.05   0.00
   2   8     0.00  -0.01  -0.00    -0.00   0.02  -0.01     0.54   0.25   0.06
   3   1     0.00  -0.00   0.01    -0.00   0.00  -0.01     0.15   0.04   0.07
   4   1     0.00   0.01  -0.00     0.02   0.04  -0.02    -0.01   0.00   0.00
   5   8     0.01   0.00   0.01     0.05   0.06   0.02    -0.02  -0.01   0.02
   6   1     0.00  -0.01   0.01     0.02   0.01   0.01    -0.01  -0.00  -0.00
   7   1     0.00   0.01  -0.01    -0.01   0.03   0.01    -0.14  -0.07  -0.02
   8   8     0.00   0.03  -0.03    -0.05   0.12  -0.02    -0.56  -0.29  -0.10
   9   1    -0.03   0.01  -0.03    -0.02   0.04  -0.01    -0.12  -0.08  -0.01
  10   1     0.01  -0.03  -0.03    -0.01  -0.00  -0.02    -0.02  -0.01   0.03
  11   8    -0.02  -0.13  -0.06    -0.06   0.00  -0.07    -0.08  -0.02   0.09
  12   1    -0.00  -0.03   0.01    -0.01   0.01  -0.02    -0.01   0.02   0.00
  13   1     0.00   0.01   0.00     0.01  -0.01   0.00    -0.04   0.01   0.02
  14   8     0.01  -0.00   0.00     0.03  -0.03   0.01    -0.20   0.06   0.07
  15   1    -0.00   0.03   0.01     0.01  -0.01   0.00    -0.06   0.03   0.01
  16   1     0.00  -0.01   0.04     0.00  -0.14  -0.02     0.01   0.01   0.02
  17   8    -0.00  -0.01   0.11     0.03  -0.61  -0.03     0.03   0.00   0.01
  18   1    -0.01   0.00   0.03     0.01  -0.10  -0.01    -0.02  -0.03  -0.00
  19   1     0.00  -0.00  -0.00    -0.06   0.11  -0.06     0.00   0.01   0.00
  20   8    -0.03   0.01  -0.02    -0.22   0.41  -0.22     0.00   0.03   0.00
  21   1    -0.00   0.01   0.01    -0.09   0.10  -0.07    -0.00   0.01  -0.00
  22   1    -0.04   0.02  -0.01     0.08   0.05   0.13    -0.01   0.00  -0.01
  23   8    -0.01  -0.01  -0.03     0.09   0.16   0.36    -0.01  -0.01  -0.02
  24   1     0.02  -0.01  -0.01     0.04  -0.02   0.12     0.01  -0.00  -0.01
  25   1     0.00   0.00  -0.00    -0.01  -0.01   0.01     0.04  -0.01  -0.01
  26   8    -0.00   0.01  -0.01    -0.04  -0.01   0.03     0.17  -0.07  -0.03
  27   1     0.00   0.01  -0.01    -0.01   0.00   0.01     0.04  -0.07  -0.01
  28   1    -0.02   0.05   0.01     0.03  -0.01  -0.02     0.02   0.02  -0.02
  29   8    -0.03   0.08   0.03     0.12  -0.07  -0.08     0.09  -0.01  -0.07
  30   1     0.06  -0.16  -0.03     0.04  -0.04  -0.02     0.05  -0.06  -0.02
  31   1     0.01  -0.01   0.00     0.01  -0.02   0.01     0.01  -0.00   0.00
  32   8    -0.00   0.00   0.00     0.04  -0.07   0.02     0.01  -0.00  -0.01
  33   1    -0.01   0.00  -0.00    -0.00  -0.00  -0.02     0.00  -0.00  -0.00
  34   1     0.33  -0.00   0.12    -0.00   0.00  -0.01     0.00   0.03   0.00
  35   8     0.20   0.04   0.04     0.00   0.01   0.00     0.03   0.10  -0.03
  36   1    -0.82   0.05  -0.27     0.01   0.01   0.00     0.01   0.01  -0.01
                     25                     26                     27
                        a                      a                      a 
 Frequencies --   275.5227               238.1172               194.5257
 Red. masses --    99.0000                99.0000                99.0000
 Frc consts  --    99.0000                99.0000                99.0000
 IR Inten    --    99.0000                99.0000                99.0000
 Raman Activ --     0.0000                 0.0000                 0.0000
 Depolar     --     0.0000                 0.0000                 0.0000
 Atom AN      X      Y      Z        X      Y      Z        X      Y      Z
   1   1    -0.02   0.01  -0.01     0.02   0.02  -0.01     0.00   0.04  -0.01
   2   8    -0.07   0.03  -0.01     0.07   0.07   0.00     0.07   0.21  -0.01
   3   1    -0.02   0.01  -0.01     0.01   0.02   0.02     0.03   0.04  -0.01
   4   1    -0.01  -0.01   0.01    -0.00   0.01  -0.00    -0.00  -0.02   0.02
   5   8    -0.05  -0.04   0.06     0.00  -0.00   0.03    -0.02  -0.02   0.05
   6   1    -0.01  -0.00   0.01     0.00  -0.00   0.01    -0.00  -0.01   0.02
   7   1     0.05  -0.03  -0.03    -0.06   0.04   0.07    -0.01  -0.04  -0.09
   8   8     0.11  -0.09  -0.06    -0.19   0.13   0.20    -0.08  -0.13  -0.31
   9   1     0.02  -0.04  -0.00    -0.03   0.06   0.04     0.00  -0.04  -0.06
  10   1    -0.00  -0.04   0.04     0.07   0.11  -0.14     0.08   0.00  -0.03
  11   8    -0.13   0.14   0.12     0.23   0.35  -0.36     0.30  -0.03  -0.04
  12   1     0.07   0.16  -0.02     0.06   0.09  -0.09     0.05  -0.05   0.05
  13   1     0.02   0.01   0.00     0.01   0.00   0.00     0.05   0.00  -0.02
  14   8     0.03  -0.03   0.01     0.03  -0.01   0.00     0.28  -0.01  -0.09
  15   1    -0.01   0.13   0.02    -0.00   0.04   0.01     0.08  -0.02  -0.01
  16   1    -0.00   0.00  -0.07     0.02   0.01   0.08    -0.04  -0.02  -0.05
  17   8    -0.02   0.01  -0.21     0.08  -0.01   0.26    -0.15  -0.05  -0.18
  18   1     0.01  -0.00  -0.05     0.00   0.01   0.06    -0.04  -0.02  -0.04
  19   1     0.00   0.01   0.01    -0.00   0.01  -0.01     0.02  -0.02   0.02
  20   8     0.06  -0.03   0.05    -0.04   0.09  -0.06     0.06  -0.10   0.07
  21   1     0.01  -0.02  -0.01    -0.01   0.03   0.00     0.00  -0.03   0.01
  22   1     0.18  -0.07   0.03    -0.02  -0.02  -0.05     0.04   0.04   0.09
  23   8    -0.01   0.05   0.09    -0.05  -0.06  -0.17     0.09   0.12   0.29
  24   1    -0.06   0.03   0.03    -0.00  -0.01  -0.05     0.01   0.01   0.08
  25   1     0.01   0.01  -0.02     0.00  -0.01  -0.00    -0.01  -0.00  -0.00
  26   8     0.04  -0.01  -0.07     0.01  -0.03  -0.01    -0.05  -0.04  -0.02
  27   1     0.00  -0.04  -0.02    -0.00  -0.04  -0.01    -0.01   0.01   0.00
  28   1    -0.05   0.19   0.03    -0.01   0.00   0.01    -0.11   0.00   0.07
  29   8    -0.03   0.19   0.06    -0.03   0.03   0.04    -0.41   0.18   0.27
  30   1     0.28  -0.73  -0.10     0.03  -0.10  -0.01    -0.15   0.16   0.07
  31   1    -0.01   0.01  -0.01    -0.00  -0.00  -0.01    -0.01   0.01  -0.04
  32   8    -0.01  -0.01  -0.02     0.00  -0.00  -0.02    -0.02   0.02  -0.10
  33   1     0.01  -0.00  -0.00    -0.01   0.00  -0.01    -0.00   0.00  -0.02
  34   1    -0.06  -0.02   0.01    -0.04  -0.13   0.04     0.02  -0.04   0.02
  35   8    -0.03  -0.09   0.02    -0.12  -0.54   0.09    -0.04  -0.15   0.05
  36   1     0.07  -0.05   0.03    -0.03  -0.15   0.02    -0.04  -0.03   0.00
                     28                     29                     30
                        a                      a                      a 
 Frequencies --   473.6584               339.4478               435.8760
 Red. masses --    99.0000                99.0000                99.0000
 Frc consts  --    99.0000                99.0000                99.0000
 IR Inten    --    99.0000                99.0000                99.0000
 Raman Activ --     0.0000                 0.0000                 0.0000
 Depolar     --     0.0000                 0.0000                 0.0000
 Atom AN      X      Y      Z        X      Y      Z        X      Y      Z
   1   1    -0.11  -0.06  -0.27    -0.02   0.05  -0.01    -0.02   0.01   0.05
   2   8    -0.04   0.04  -0.10    -0.15   0.16  -0.04    -0.03   0.06  -0.00
   3   1     0.05  -0.09   0.70    -0.05   0.05  -0.01     0.01   0.01  -0.12
   4   1     0.00  -0.01   0.00     0.13   0.03   0.05    -0.01   0.00   0.00
   5   8     0.01   0.01  -0.04     0.33   0.22   0.42    -0.00  -0.00  -0.01
   6   1     0.00  -0.00  -0.01     0.12   0.08   0.15    -0.00   0.00  -0.01
   7   1     0.00  -0.04  -0.15     0.03  -0.00  -0.01    -0.02   0.02   0.07
   8   8     0.06   0.06   0.05     0.03   0.00  -0.01     0.01  -0.02   0.01
   9   1    -0.16  -0.11  -0.00     0.00  -0.01   0.01     0.00   0.06  -0.06
  10   1     0.06   0.04  -0.15    -0.01   0.00   0.01     0.06  -0.12  -0.03
  11   8     0.01  -0.03  -0.03    -0.00   0.02   0.01    -0.05   0.05  -0.05
  12   1    -0.02  -0.07   0.16    -0.00   0.01  -0.01     0.06   0.05   0.18
  13   1    -0.01  -0.02  -0.00    -0.02   0.01  -0.02    -0.10  -0.07   0.02
  14   8    -0.00   0.07  -0.00    -0.08   0.06  -0.09    -0.08   0.05   0.05
  15   1     0.03  -0.21  -0.05    -0.02   0.04  -0.02     0.08  -0.39   0.01
  16   1     0.00  -0.03  -0.05    -0.00   0.03  -0.01    -0.00   0.03  -0.00
  17   8    -0.02  -0.00  -0.02    -0.00   0.05  -0.02     0.01   0.00  -0.01
  18   1     0.05   0.03   0.01    -0.00   0.02  -0.00     0.00  -0.02  -0.00
  19   1     0.01   0.00   0.01    -0.12  -0.10  -0.07     0.07  -0.05   0.04
  20   8    -0.00   0.00   0.00    -0.39  -0.35  -0.24    -0.02   0.00   0.00
  21   1    -0.01   0.00   0.00    -0.07  -0.08  -0.05    -0.05   0.02   0.05
  22   1     0.01   0.02   0.03    -0.01   0.00   0.00     0.00  -0.01  -0.00
  23   8     0.00  -0.00  -0.01    -0.00   0.01   0.00    -0.00  -0.00   0.00
  24   1    -0.03  -0.02   0.01     0.00   0.00   0.00    -0.00   0.01  -0.00
  25   1     0.00   0.06   0.03     0.07  -0.02  -0.03     0.03  -0.07  -0.01
  26   8     0.02   0.00   0.08     0.22  -0.16  -0.15     0.07  -0.15  -0.02
  27   1    -0.04  -0.23  -0.03     0.04  -0.10  -0.06     0.09   0.39   0.09
  28   1    -0.09   0.04   0.05    -0.00  -0.02   0.00    -0.34  -0.13   0.22
  29   8     0.03   0.03   0.00     0.01  -0.01  -0.00     0.14   0.07   0.06
  30   1    -0.01  -0.02  -0.11    -0.01   0.03  -0.00    -0.08  -0.01  -0.49
  31   1    -0.01   0.02   0.09     0.02  -0.01   0.03     0.04  -0.02   0.10
  32   8     0.00  -0.02   0.01     0.01  -0.00   0.11    -0.00  -0.00  -0.04
  33   1     0.03   0.07  -0.08    -0.02  -0.00   0.02    -0.04   0.08  -0.12
  34   1    -0.00   0.03   0.19    -0.00  -0.00   0.00    -0.01  -0.01  -0.07
  35   8    -0.02   0.06  -0.03     0.00  -0.00   0.00     0.01  -0.03   0.02
  36   1     0.05  -0.19  -0.02    -0.00  -0.00  -0.00    -0.00   0.06   0.01
                     31                     32                     33
                        a                      a                      a 
 Frequencies --   483.2286               414.7034               508.9665
 Red. masses --    99.0000                99.0000                99.0000
 Frc consts  --    99.0000                99.0000                99.0000
 IR Inten    --    99.0000                99.0000                99.0000
 Raman Activ --     0.0000                 0.0000                 0.0000
 Depolar     --     0.0000                 0.0000                 0.0000
 Atom AN      X      Y      Z        X      Y      Z        X      Y      Z
   1   1     0.15   0.07   0.15    -0.01   0.02   0.02     0.02   0.01  -0.02
   2   8     0.06  -0.08   0.06    -0.05   0.07  -0.01     0.01  -0.02   0.00
   3   1    -0.10   0.12  -0.37    -0.02   0.02  -0.05    -0.01   0.00   0.04
   4   1    -0.01  -0.05   0.06     0.00  -0.00   0.00     0.01   0.01  -0.03
   5   8     0.01  -0.00   0.01     0.00   0.00  -0.00    -0.01  -0.00  -0.01
   6   1    -0.01   0.02  -0.04    -0.00   0.02  -0.02     0.01  -0.03   0.04
   7   1     0.20  -0.04  -0.07    -0.01   0.02   0.09     0.00  -0.00  -0.00
   8   8    -0.05   0.06   0.03    -0.04   0.01   0.11    -0.01  -0.01  -0.03
   9   1    -0.11  -0.16   0.10    -0.01   0.05  -0.02     0.05   0.01   0.02
  10   1     0.06   0.01  -0.12     0.02   0.08  -0.09     0.00  -0.43   0.31
  11   8    -0.02  -0.03  -0.01     0.05  -0.02  -0.06    -0.03   0.10  -0.06
  12   1     0.04   0.03  -0.00    -0.11  -0.17   0.16     0.26   0.32  -0.08
  13   1    -0.00   0.00   0.00     0.02  -0.00  -0.00     0.18   0.02  -0.04
  14   8     0.02   0.04  -0.00    -0.05   0.08   0.08     0.02   0.07   0.05
  15   1     0.03  -0.22  -0.05     0.00  -0.53  -0.16    -0.10  -0.32  -0.26
  16   1    -0.00   0.03   0.02    -0.00   0.01  -0.03     0.00  -0.02   0.00
  17   8     0.02  -0.00   0.00    -0.00   0.01  -0.08    -0.00   0.01   0.01
  18   1    -0.04   0.06  -0.01     0.01  -0.01  -0.01    -0.00   0.00   0.00
  19   1    -0.00   0.19  -0.03    -0.02   0.00  -0.01    -0.04  -0.02  -0.01
  20   8    -0.01  -0.04   0.04     0.01  -0.01  -0.00     0.00   0.00   0.01
  21   1     0.04  -0.09  -0.16     0.00  -0.01  -0.01     0.04   0.02   0.02
  22   1     0.05   0.08   0.11     0.00   0.00   0.01     0.01   0.05   0.06
  23   8    -0.01  -0.01  -0.04     0.00   0.01   0.01    -0.00  -0.01  -0.02
  24   1    -0.05  -0.12   0.05    -0.00  -0.00   0.00    -0.02  -0.06   0.02
  25   1    -0.00   0.02  -0.00     0.03  -0.06  -0.00    -0.05   0.06   0.00
  26   8    -0.06   0.06  -0.04     0.09  -0.16   0.01    -0.02   0.07   0.01
  27   1    -0.04  -0.12  -0.06     0.07   0.24   0.06    -0.04  -0.26  -0.01
  28   1    -0.02  -0.02   0.02     0.23   0.32  -0.17     0.04   0.03  -0.02
  29   8     0.01   0.02   0.01    -0.11  -0.01  -0.07    -0.02  -0.04   0.00
  30   1    -0.01   0.01  -0.03     0.13  -0.13   0.39    -0.02   0.07   0.09
  31   1     0.05  -0.04   0.04    -0.11   0.10  -0.05    -0.04   0.04   0.02
  32   8    -0.00   0.01  -0.01     0.01   0.00  -0.01    -0.00  -0.04   0.03
  33   1    -0.04   0.01  -0.02     0.12  -0.00   0.04    -0.03   0.07  -0.10
  34   1    -0.13   0.07   0.42     0.07  -0.01  -0.02    -0.29   0.00  -0.18
  35   8     0.01   0.14  -0.04    -0.04   0.00  -0.01     0.11  -0.04   0.05
  36   1     0.02  -0.45  -0.09     0.02   0.04   0.01    -0.15   0.09  -0.03
                     34                     35                     36
                        a                      a                      a 
 Frequencies --   423.8827               374.5570               495.4136
 Red. masses --    99.0000                99.0000                99.0000
 Frc consts  --    99.0000                99.0000                99.0000
 IR Inten    --    99.0000                99.0000                99.0000
 Raman Activ --     0.0000                 0.0000                 0.0000
 Depolar     --     0.0000                 0.0000                 0.0000
 Atom AN      X      Y      Z        X      Y      Z        X      Y      Z
   1   1     0.00  -0.00  -0.00     0.03  -0.11  -0.06    -0.10  -0.05  -0.05
   2   8     0.00  -0.01   0.00     0.27  -0.34   0.07    -0.04   0.07  -0.04
   3   1    -0.00   0.00   0.00     0.10  -0.12   0.11     0.06  -0.07   0.17
   4   1     0.04  -0.03  -0.03     0.03  -0.01   0.05    -0.02  -0.03   0.06
   5   8    -0.04  -0.00   0.01     0.03  -0.03   0.34     0.02   0.01  -0.02
   6   1     0.02   0.03   0.04     0.03  -0.03   0.14    -0.01   0.01  -0.04
   7   1     0.01  -0.01  -0.02    -0.07   0.00   0.00    -0.09   0.00  -0.04
   8   8     0.01  -0.00  -0.02    -0.03  -0.03  -0.01     0.01  -0.00  -0.02
   9   1    -0.01  -0.01   0.00     0.00   0.03  -0.03     0.05   0.01   0.02
  10   1     0.00  -0.03   0.01     0.00   0.03  -0.03    -0.04  -0.05   0.10
  11   8    -0.02   0.01   0.00    -0.01   0.02   0.01    -0.01  -0.01   0.02
  12   1     0.03   0.04  -0.01    -0.02  -0.01   0.02     0.09   0.15  -0.29
  13   1     0.02   0.04   0.01     0.01  -0.02   0.01     0.01  -0.03  -0.01
  14   8    -0.00  -0.04   0.04     0.09  -0.05   0.04    -0.02  -0.04   0.01
  15   1    -0.01   0.01  -0.00     0.04  -0.14  -0.00    -0.03   0.15   0.04
  16   1     0.00  -0.01   0.03    -0.00   0.01  -0.01    -0.01   0.08  -0.06
  17   8    -0.01  -0.01   0.04     0.00   0.01  -0.01     0.04   0.02   0.01
  18   1    -0.02   0.01   0.01     0.01   0.00   0.00     0.07   0.02   0.02
  19   1    -0.13   0.08  -0.08    -0.01  -0.03  -0.01     0.27  -0.01   0.11
  20   8     0.01  -0.01  -0.02    -0.09  -0.07  -0.05    -0.05  -0.01  -0.02
  21   1     0.07  -0.04  -0.09    -0.04  -0.01  -0.00    -0.22  -0.02   0.01
  22   1    -0.01   0.02   0.02     0.01  -0.00   0.00     0.12   0.18   0.25
  23   8    -0.01  -0.00  -0.01    -0.00   0.00  -0.00    -0.02  -0.02  -0.11
  24   1     0.00  -0.03   0.01    -0.00  -0.00   0.00    -0.11  -0.27   0.11
  25   1    -0.01   0.01  -0.00    -0.07   0.14  -0.08     0.03  -0.07  -0.01
  26   8     0.00   0.01  -0.02    -0.27   0.48  -0.36     0.04  -0.13  -0.01
  27   1     0.00  -0.01   0.01    -0.04   0.27  -0.05     0.09   0.45   0.11
  28   1    -0.10  -0.09   0.07     0.01   0.03  -0.01     0.11  -0.10  -0.06
  29   8     0.05   0.03   0.03    -0.00   0.00  -0.00    -0.05  -0.01   0.01
  30   1    -0.04   0.04  -0.16     0.02  -0.03   0.02     0.00   0.03   0.12
  31   1    -0.40   0.37  -0.14    -0.00   0.01  -0.02    -0.06   0.05  -0.05
  32   8    -0.01  -0.03  -0.06     0.00   0.01  -0.04     0.01  -0.01  -0.01
  33   1     0.63  -0.14   0.37    -0.01   0.01  -0.02     0.02   0.01  -0.01
  34   1    -0.01   0.00   0.01     0.01  -0.00  -0.01    -0.12   0.03   0.16
  35   8     0.01   0.00   0.00    -0.02  -0.01   0.00     0.03   0.05  -0.00
  36   1    -0.02  -0.01  -0.01     0.02   0.01   0.01    -0.03  -0.19  -0.05
                     37                     38                     39
                        a                      a                      a 
 Frequencies --   477.8480               287.5085               617.5032
 Red. masses --    99.0000                99.0000                99.0000
 Frc consts  --    99.0000                99.0000                99.0000
 IR Inten    --    99.0000                99.0000                99.0000
 Raman Activ --     0.0000                 0.0000                 0.0000
 Depolar     --     0.0000                 0.0000                 0.0000
 Atom AN      X      Y      Z        X      Y      Z        X      Y      Z
   1   1    -0.06  -0.02  -0.05    -0.03   0.05  -0.06    -0.17  -0.09  -0.03
   2   8    -0.02   0.04  -0.02    -0.20   0.16  -0.04    -0.01   0.05   0.03
   3   1     0.04  -0.04   0.14    -0.06   0.06   0.01     0.16  -0.15  -0.12
   4   1     0.00  -0.03   0.02    -0.09  -0.04   0.08     0.03   0.15  -0.17
   5   8     0.00   0.01  -0.01    -0.30  -0.28   0.36     0.00   0.07  -0.09
   6   1    -0.00  -0.00   0.00    -0.08  -0.10   0.11     0.04  -0.38   0.38
   7   1    -0.07   0.01   0.01     0.03   0.01   0.01     0.12  -0.03  -0.07
   8   8     0.03  -0.03   0.00     0.06   0.05   0.04    -0.06   0.04   0.05
   9   1     0.02   0.04  -0.03     0.01   0.01   0.01     0.06  -0.10   0.15
  10   1     0.00  -0.01   0.01    -0.00  -0.01   0.00    -0.05  -0.02   0.11
  11   8    -0.01   0.02   0.00     0.02  -0.06  -0.02     0.06   0.02  -0.09
  12   1     0.00   0.00   0.03    -0.00  -0.02  -0.01    -0.09  -0.14   0.14
  13   1     0.00   0.10   0.02    -0.02   0.00   0.04    -0.01  -0.08  -0.02
  14   8    -0.02  -0.03   0.02    -0.07  -0.00   0.16    -0.01   0.00  -0.01
  15   1    -0.01  -0.03  -0.01    -0.02   0.02   0.04     0.00   0.08   0.03
  16   1     0.01  -0.08   0.04     0.01  -0.03   0.01     0.02  -0.07   0.02
  17   8    -0.02   0.02   0.05     0.02  -0.05   0.03     0.01   0.00  -0.02
  18   1    -0.04   0.06   0.01     0.01  -0.01   0.01    -0.05   0.10  -0.02
  19   1    -0.29   0.35  -0.18     0.07   0.08   0.04     0.19   0.14   0.06
  20   8     0.04  -0.03   0.05     0.17   0.22   0.13    -0.06  -0.04   0.03
  21   1     0.35  -0.13  -0.28     0.01   0.04   0.01    -0.02  -0.06  -0.08
  22   1     0.04   0.15   0.18    -0.01   0.00  -0.00    -0.01  -0.00  -0.01
  23   8     0.00  -0.02  -0.07    -0.00  -0.01  -0.01     0.01  -0.00   0.01
  24   1    -0.10  -0.19   0.08     0.01  -0.01  -0.00    -0.05   0.04  -0.00
  25   1     0.01  -0.02  -0.00     0.08   0.00  -0.12    -0.31   0.02  -0.06
  26   8     0.02  -0.04   0.01     0.28  -0.07  -0.48     0.08  -0.00  -0.05
  27   1     0.03   0.13   0.03     0.06  -0.12  -0.13     0.08  -0.05   0.33
  28   1    -0.03  -0.00   0.02     0.02  -0.03  -0.01    -0.04   0.13   0.02
  29   8     0.01   0.00   0.00     0.02  -0.02  -0.03     0.02  -0.03  -0.01
  30   1    -0.01  -0.00  -0.05    -0.04   0.12   0.02     0.00  -0.01  -0.00
  31   1     0.20  -0.21  -0.21     0.00  -0.00  -0.03     0.05  -0.04   0.10
  32   8    -0.02   0.12  -0.01    -0.00   0.00  -0.15    -0.03   0.02  -0.04
  33   1    -0.23  -0.24   0.21    -0.01   0.01  -0.05     0.06  -0.02   0.05
  34   1     0.03  -0.02  -0.10     0.01   0.01  -0.00    -0.14   0.01  -0.02
  35   8    -0.00  -0.04   0.01     0.01   0.03  -0.01     0.04   0.01   0.01
  36   1    -0.00   0.11   0.02    -0.01   0.01  -0.00    -0.04  -0.03  -0.02
                     40                     41                     42
                        a                      a                      a 
 Frequencies --   546.9529               321.0933               573.5136
 Red. masses --    99.0000                99.0000                99.0000
 Frc consts  --    99.0000                99.0000                99.0000
 IR Inten    --    99.0000                99.0000                99.0000
 Raman Activ --     0.0000                 0.0000                 0.0000
 Depolar     --     0.0000                 0.0000                 0.0000
 Atom AN      X      Y      Z        X      Y      Z        X      Y      Z
   1   1    -0.24  -0.11   0.07    -0.00   0.00   0.01    -0.02  -0.01  -0.07
   2   8    -0.03   0.09   0.03    -0.02   0.00   0.00    -0.01  -0.00  -0.00
   3   1     0.23  -0.22  -0.20    -0.01   0.00   0.02     0.01  -0.02   0.08
   4   1    -0.01   0.02  -0.01    -0.00  -0.01   0.00     0.05  -0.05  -0.04
   5   8    -0.01  -0.00  -0.01     0.00   0.00  -0.03    -0.02   0.00  -0.02
   6   1    -0.01  -0.00  -0.01     0.00   0.00  -0.01     0.04   0.01   0.07
   7   1    -0.55   0.07   0.05     0.02  -0.03   0.03     0.19   0.11   0.43
   8   8     0.09  -0.07  -0.01     0.05  -0.15   0.05     0.00  -0.07  -0.13
   9   1     0.29   0.26  -0.06     0.05  -0.03   0.03     0.00   0.21  -0.22
  10   1    -0.08  -0.02   0.13    -0.09   0.24   0.06    -0.03   0.03   0.03
  11   8     0.01  -0.02  -0.06    -0.15   0.53   0.23     0.02  -0.01   0.00
  12   1    -0.07  -0.09   0.04    -0.12   0.05   0.02    -0.06  -0.09   0.09
  13   1    -0.01   0.06   0.02     0.01  -0.01   0.03     0.21  -0.03  -0.07
  14   8     0.01   0.01   0.00     0.00  -0.04   0.14    -0.02  -0.01   0.04
  15   1     0.02  -0.11  -0.02     0.00  -0.07   0.01    -0.16   0.15  -0.16
  16   1    -0.00  -0.01  -0.04    -0.00  -0.00  -0.13    -0.05   0.27   0.23
  17   8    -0.01   0.01   0.01    -0.02   0.05  -0.40     0.01  -0.00  -0.02
  18   1     0.05  -0.06   0.02     0.02  -0.01  -0.09    -0.18  -0.22  -0.05
  19   1    -0.01  -0.06   0.00     0.00   0.01   0.01    -0.13   0.02  -0.05
  20   8     0.00   0.01  -0.02     0.02  -0.06   0.05     0.05   0.01   0.04
  21   1     0.00   0.03   0.05     0.00  -0.03  -0.01    -0.01  -0.04  -0.06
  22   1    -0.00   0.01   0.01    -0.01   0.02   0.03     0.06  -0.02   0.01
  23   8     0.00  -0.01  -0.01     0.03   0.04   0.10    -0.08   0.03  -0.01
  24   1    -0.02  -0.00   0.00     0.00   0.00   0.03     0.29  -0.15  -0.00
  25   1     0.10   0.05   0.03    -0.01   0.00   0.00    -0.11   0.02  -0.02
  26   8     0.02   0.05   0.02    -0.01  -0.01   0.02     0.03  -0.01  -0.02
  27   1    -0.05  -0.22  -0.14    -0.01  -0.05   0.01     0.03   0.00   0.13
  28   1    -0.05   0.04   0.03     0.05  -0.09  -0.03    -0.04   0.04   0.02
  29   8     0.02   0.02   0.01     0.18  -0.19  -0.10     0.03  -0.00   0.00
  30   1     0.00  -0.03  -0.05    -0.05   0.21   0.01    -0.01   0.01  -0.04
  31   1     0.02  -0.02  -0.03    -0.00   0.01  -0.03    -0.07   0.05  -0.03
  32   8    -0.01   0.01   0.00    -0.01   0.03  -0.11     0.02  -0.04   0.05
  33   1    -0.00  -0.05   0.06    -0.00   0.01  -0.03    -0.07   0.09  -0.13
  34   1     0.01   0.03   0.22     0.08  -0.05   0.07    -0.04   0.02   0.12
  35   8    -0.02   0.06   0.00    -0.01  -0.21   0.05    -0.02   0.03  -0.00
  36   1     0.03  -0.23  -0.03    -0.24  -0.07  -0.07     0.03  -0.14  -0.02
                     43                     44                     45
                        a                      a                      a 
 Frequencies --   637.2797               569.6559               722.2562
 Red. masses --    99.0000                99.0000                99.0000
 Frc consts  --    99.0000                99.0000                99.0000
 IR Inten    --    99.0000                99.0000                99.0000
 Raman Activ --     0.0000                 0.0000                 0.0000
 Depolar     --     0.0000                 0.0000                 0.0000
 Atom AN      X      Y      Z        X      Y      Z        X      Y      Z
   1   1    -0.08  -0.04  -0.03     0.05   0.03   0.02     0.00   0.01   0.24
   2   8    -0.01   0.01   0.01     0.00  -0.00   0.01     0.02  -0.02  -0.07
   3   1     0.08  -0.08  -0.06    -0.04   0.05  -0.04    -0.03   0.03   0.11
   4   1     0.21  -0.32  -0.06    -0.01  -0.00   0.02     0.22  -0.17  -0.23
   5   8    -0.08  -0.07   0.00     0.01   0.01  -0.01    -0.14   0.03  -0.11
   6   1     0.17   0.40   0.02    -0.00  -0.05   0.03     0.20   0.01   0.43
   7   1     0.15   0.01   0.10    -0.20  -0.04  -0.19    -0.01  -0.02  -0.06
   8   8    -0.03  -0.01  -0.03     0.01   0.02   0.07     0.01   0.01   0.02
   9   1    -0.16   0.01  -0.12     0.09  -0.05   0.12    -0.05  -0.04   0.00
  10   1    -0.07  -0.10   0.19    -0.07   0.20  -0.04    -0.03  -0.04   0.09
  11   8     0.02   0.03  -0.04     0.03  -0.09   0.02     0.02   0.03  -0.04
  12   1     0.01   0.02  -0.06    -0.08  -0.07  -0.21    -0.01  -0.02   0.04
  13   1     0.07  -0.01  -0.02     0.38   0.01  -0.11    -0.04   0.01   0.02
  14   8     0.01   0.01   0.03    -0.03   0.01   0.08     0.00  -0.02  -0.01
  15   1    -0.05  -0.01  -0.07    -0.28   0.02  -0.37     0.03   0.04   0.06
  16   1    -0.00  -0.03  -0.22     0.03  -0.14  -0.04    -0.02   0.11   0.11
  17   8    -0.01  -0.00   0.09    -0.01   0.00  -0.01     0.03  -0.03  -0.04
  18   1     0.21   0.01   0.07     0.03   0.11   0.00    -0.09  -0.03  -0.03
  19   1    -0.03   0.02  -0.01     0.03   0.11  -0.00     0.04   0.08   0.01
  20   8     0.04   0.05   0.02    -0.03  -0.02   0.03     0.00   0.02   0.05
  21   1    -0.13  -0.03  -0.04     0.09  -0.03  -0.05    -0.04  -0.03  -0.05
  22   1    -0.07   0.01  -0.03    -0.03  -0.00  -0.02    -0.05   0.03   0.00
  23   8     0.06  -0.03   0.01     0.03  -0.01   0.01     0.04  -0.02   0.00
  24   1    -0.23   0.14  -0.01    -0.09   0.07  -0.01    -0.19   0.10   0.00
  25   1    -0.19  -0.04  -0.05    -0.08  -0.01  -0.02     0.27  -0.24  -0.00
  26   8     0.04   0.02  -0.04     0.01  -0.01  -0.03    -0.04   0.02   0.07
  27   1     0.04  -0.05   0.18     0.03   0.04   0.10    -0.06   0.10  -0.35
  28   1     0.01  -0.02  -0.01    -0.06  -0.12   0.05    -0.05   0.16   0.02
  29   8    -0.00   0.01   0.01     0.03   0.08   0.06     0.03  -0.05  -0.00
  30   1    -0.00   0.01   0.01    -0.01  -0.03  -0.13    -0.01   0.03   0.00
  31   1     0.13  -0.11   0.16    -0.17   0.14  -0.12    -0.10   0.08  -0.17
  32   8    -0.07   0.04  -0.07     0.05  -0.09   0.10     0.06  -0.03   0.07
  33   1     0.06  -0.04   0.07    -0.13   0.16  -0.23    -0.11   0.07  -0.12
  34   1     0.28  -0.02   0.09     0.23  -0.02   0.02    -0.00   0.00   0.01
  35   8    -0.08  -0.00  -0.03    -0.05  -0.00  -0.02    -0.00  -0.00  -0.00
  36   1     0.09  -0.01   0.03     0.08   0.06   0.04     0.00  -0.01  -0.00
                     46                     47                     48
                        a                      a                      a 
 Frequencies --   309.1641               492.0515               604.8888
 Red. masses --    99.0000                99.0000                99.0000
 Frc consts  --    99.0000                99.0000                99.0000
 IR Inten    --    99.0000                99.0000                99.0000
 Raman Activ --     0.0000                 0.0000                 0.0000
 Depolar     --     0.0000                 0.0000                 0.0000
 Atom AN      X      Y      Z        X      Y      Z        X      Y      Z
   1   1    -0.00   0.01   0.01     0.02   0.01   0.03    -0.00   0.00   0.02
   2   8    -0.03   0.03  -0.01     0.01  -0.03   0.02    -0.00   0.01   0.01
   3   1    -0.01   0.01  -0.01     0.00  -0.00  -0.09     0.01  -0.00  -0.09
   4   1     0.04   0.03  -0.01    -0.03  -0.10   0.14     0.12  -0.12  -0.10
   5   8     0.14   0.11  -0.03     0.03   0.02  -0.03    -0.06  -0.02  -0.01
   6   1     0.04   0.03  -0.01    -0.02   0.04  -0.09     0.09   0.13   0.10
   7   1     0.00   0.01  -0.01     0.00   0.01   0.05    -0.31  -0.08  -0.38
   8   8    -0.01   0.04  -0.01    -0.01  -0.02  -0.02     0.08   0.06   0.14
   9   1    -0.01  -0.00  -0.00     0.03   0.04  -0.03    -0.04  -0.14   0.12
  10   1     0.01  -0.05  -0.01    -0.02   0.07  -0.01     0.11  -0.07  -0.15
  11   8     0.02  -0.12  -0.05     0.02   0.02  -0.01    -0.05   0.02   0.01
  12   1     0.02  -0.01  -0.01    -0.10  -0.14   0.17     0.08   0.08   0.12
  13   1     0.05  -0.02   0.15    -0.04  -0.05   0.00     0.04  -0.01  -0.02
  14   8     0.10  -0.19   0.60     0.02   0.03  -0.02    -0.00  -0.01   0.01
  15   1     0.01   0.01   0.15     0.04   0.01   0.04    -0.04   0.05  -0.03
  16   1    -0.00   0.01   0.02    -0.01   0.12  -0.00    -0.06   0.29  -0.01
  17   8     0.00   0.02   0.08     0.04   0.03   0.06    -0.01  -0.06  -0.05
  18   1    -0.00   0.01   0.02     0.02   0.02   0.01    -0.02   0.05  -0.01
  19   1    -0.03  -0.05  -0.01     0.27   0.20   0.08    -0.18  -0.08  -0.06
  20   8    -0.12  -0.09  -0.05    -0.06  -0.04   0.03     0.12   0.03   0.05
  21   1    -0.02  -0.01   0.01    -0.21  -0.13  -0.17    -0.20  -0.04  -0.04
  22   1     0.01  -0.01  -0.01     0.13   0.19   0.27     0.09  -0.05  -0.00
  23   8    -0.01  -0.01  -0.02    -0.04  -0.01  -0.11    -0.10   0.05  -0.00
  24   1    -0.01   0.01  -0.01    -0.09  -0.31   0.11     0.42  -0.22  -0.00
  25   1    -0.03   0.00   0.03     0.04   0.08   0.02    -0.11  -0.04  -0.03
  26   8    -0.05  -0.02   0.12    -0.04   0.07   0.01     0.03  -0.00  -0.02
  27   1    -0.02  -0.09   0.03    -0.07  -0.29  -0.12     0.03   0.01   0.11
  28   1     0.01   0.02  -0.01    -0.04   0.07   0.02     0.01   0.03  -0.01
  29   8     0.00   0.04  -0.03     0.02   0.01  -0.01    -0.01  -0.03  -0.02
  30   1     0.02  -0.03  -0.00     0.01  -0.03  -0.04    -0.01   0.04   0.03
  31   1    -0.03   0.03  -0.19    -0.06   0.08   0.15     0.07  -0.07   0.07
  32   8    -0.06   0.12  -0.57     0.01  -0.06   0.00    -0.04   0.02  -0.03
  33   1    -0.06   0.04  -0.17     0.10   0.13  -0.12     0.01  -0.02   0.03
  34   1    -0.02   0.01  -0.01     0.15  -0.04  -0.24     0.07  -0.01  -0.04
  35   8     0.00   0.06  -0.02    -0.04  -0.07   0.01     0.00  -0.02   0.00
  36   1     0.05   0.01   0.01     0.02   0.28   0.07     0.00   0.07   0.01
                     49                     50                     51
                        a                      a                      a 
 Frequencies --   694.4883               590.2146               641.0789
 Red. masses --    99.0000                99.0000                99.0000
 Frc consts  --    99.0000                99.0000                99.0000
 IR Inten    --    99.0000                99.0000                99.0000
 Raman Activ --     0.0000                 0.0000                 0.0000
 Depolar     --     0.0000                 0.0000                 0.0000
 Atom AN      X      Y      Z        X      Y      Z        X      Y      Z
   1   1    -0.01   0.00   0.14    -0.21  -0.11   0.04     0.02   0.01  -0.02
   2   8     0.01  -0.00  -0.03    -0.01   0.06   0.02     0.00  -0.01  -0.00
   3   1    -0.01   0.01   0.02     0.20  -0.19  -0.17    -0.01   0.01   0.03
   4   1    -0.04   0.01   0.06    -0.06   0.02   0.08     0.08  -0.23   0.07
   5   8     0.01   0.07  -0.04     0.03   0.01   0.02    -0.03  -0.08   0.05
   6   1    -0.04  -0.20   0.09    -0.05  -0.04  -0.07     0.06   0.38  -0.18
   7   1     0.13   0.01   0.08    -0.01   0.01   0.03     0.01  -0.01  -0.04
   8   8    -0.03  -0.03  -0.03     0.06  -0.02   0.01    -0.06  -0.00  -0.03
   9   1    -0.14   0.00  -0.10    -0.26  -0.00  -0.18     0.26  -0.02   0.19
  10   1    -0.10   0.01   0.18     0.27  -0.16  -0.36    -0.01   0.12  -0.05
  11   8     0.06   0.02  -0.04    -0.12   0.06   0.09     0.06  -0.01  -0.04
  12   1    -0.07  -0.09  -0.00     0.18   0.17   0.37    -0.14  -0.21   0.22
  13   1     0.07   0.02  -0.01     0.13  -0.03  -0.04     0.09  -0.03  -0.03
  14   8     0.00  -0.03   0.03    -0.01  -0.04   0.02    -0.01  -0.03   0.02
  15   1    -0.06   0.05  -0.05    -0.11   0.25  -0.06    -0.07   0.16  -0.04
  16   1     0.04  -0.30  -0.37     0.02  -0.11  -0.09     0.03  -0.16  -0.02
  17   8    -0.09   0.06   0.11    -0.01   0.02   0.03     0.00   0.01   0.01
  18   1     0.32   0.23   0.11     0.08   0.03   0.03     0.01   0.09   0.00
  19   1    -0.12  -0.02  -0.05     0.01   0.06  -0.01    -0.03  -0.04  -0.01
  20   8     0.07   0.00   0.01    -0.02  -0.02  -0.00     0.01   0.04  -0.01
  21   1    -0.14  -0.05  -0.06     0.08  -0.01  -0.02    -0.02   0.02   0.03
  22   1     0.07  -0.07  -0.04    -0.04   0.01  -0.01    -0.03   0.01  -0.00
  23   8    -0.09   0.05  -0.00     0.04  -0.01   0.00     0.01  -0.01  -0.00
  24   1     0.39  -0.17  -0.01    -0.14   0.09  -0.00    -0.06   0.04  -0.00
  25   1     0.18  -0.07   0.02     0.06  -0.01   0.01    -0.01  -0.06  -0.02
  26   8    -0.04   0.00   0.03     0.01   0.00  -0.01    -0.01   0.01  -0.03
  27   1    -0.03   0.09  -0.18     0.01   0.07  -0.04     0.01   0.07   0.03
  28   1    -0.06   0.09   0.03     0.04   0.06  -0.04    -0.08   0.15   0.04
  29   8     0.02  -0.02   0.01    -0.01  -0.09  -0.06     0.04  -0.03  -0.01
  30   1    -0.01  -0.00  -0.04    -0.03   0.10   0.09    -0.00  -0.00  -0.05
  31   1     0.02  -0.01   0.04    -0.11   0.09  -0.07    -0.01   0.00  -0.01
  32   8    -0.02  -0.00  -0.01     0.04  -0.05   0.05     0.00   0.00   0.01
  33   1     0.01   0.01  -0.00    -0.04   0.08  -0.11    -0.02   0.01  -0.02
  34   1    -0.06   0.01   0.01    -0.02   0.00   0.01    -0.54   0.04  -0.13
  35   8     0.01  -0.00   0.00     0.00  -0.02   0.00     0.14   0.02   0.04
  36   1     0.00  -0.03  -0.01    -0.02  -0.01  -0.01    -0.17  -0.05  -0.07
                     52                     53                     54
                        a                      a                      a 
 Frequencies --   690.8371               681.3570               580.1019
 Red. masses --    99.0000                99.0000                99.0000
 Frc consts  --    99.0000                99.0000                99.0000
 IR Inten    --    99.0000                99.0000                99.0000
 Raman Activ --     0.0000                 0.0000                 0.0000
 Depolar     --     0.0000                 0.0000                 0.0000
 Atom AN      X      Y      Z        X      Y      Z        X      Y      Z
   1   1     0.00  -0.01  -0.14     0.03   0.01  -0.11    -0.37  -0.19   0.03
   2   8    -0.00   0.02   0.05    -0.01  -0.00   0.03    -0.02   0.09   0.02
   3   1     0.01   0.00  -0.08    -0.02   0.02  -0.05     0.33  -0.33  -0.11
   4   1     0.14  -0.33   0.05    -0.02  -0.08   0.10     0.00  -0.01  -0.00
   5   8    -0.06   0.02  -0.09     0.01   0.03  -0.04    -0.01  -0.03   0.02
   6   1     0.11   0.06   0.17    -0.02  -0.12   0.05    -0.00   0.08  -0.06
   7   1     0.01   0.01   0.05     0.02  -0.01  -0.02     0.40  -0.04  -0.01
   8   8     0.01  -0.02   0.01    -0.04   0.01  -0.03    -0.13   0.08   0.05
   9   1     0.02   0.02  -0.01     0.05  -0.00   0.03     0.02  -0.18   0.21
  10   1     0.04  -0.04  -0.04    -0.03   0.02   0.03    -0.03   0.16  -0.06
  11   8    -0.03  -0.00   0.01     0.01   0.01  -0.01     0.02  -0.07   0.03
  12   1     0.05   0.06  -0.03    -0.03  -0.04   0.00    -0.02   0.00  -0.25
  13   1    -0.14  -0.05   0.02    -0.14  -0.07   0.02     0.02   0.05   0.01
  14   8    -0.02   0.02  -0.05    -0.03   0.02  -0.07     0.01   0.02   0.02
  15   1     0.11  -0.05   0.13     0.11  -0.02   0.14    -0.00  -0.14  -0.05
  16   1     0.11  -0.46   0.15    -0.11   0.42  -0.32    -0.02   0.12   0.05
  17   8     0.01   0.10  -0.04    -0.03  -0.10   0.10     0.01  -0.03  -0.06
  18   1    -0.15   0.18  -0.06     0.29  -0.05   0.10    -0.08   0.00  -0.04
  19   1     0.03  -0.07   0.03    -0.22   0.02  -0.10    -0.12  -0.10  -0.04
  20   8    -0.02   0.04  -0.01     0.11   0.01   0.03     0.05   0.02   0.00
  21   1    -0.02   0.05   0.07    -0.06  -0.05  -0.08     0.01   0.03   0.06
  22   1     0.05  -0.00   0.02    -0.06  -0.01  -0.05     0.01   0.01   0.02
  23   8    -0.04   0.02  -0.01     0.05  -0.01   0.01    -0.03   0.01  -0.00
  24   1     0.16  -0.10   0.01    -0.13   0.11  -0.01     0.08  -0.06   0.01
  25   1     0.00   0.46   0.10    -0.05   0.33   0.07     0.16   0.02   0.03
  26   8     0.01  -0.11  -0.00     0.01  -0.08  -0.01     0.00   0.02   0.03
  27   1     0.02  -0.02   0.08     0.02  -0.01   0.11    -0.03  -0.02  -0.17
  28   1     0.03  -0.02  -0.02     0.00  -0.02  -0.00     0.01  -0.12   0.01
  29   8    -0.01  -0.00  -0.00    -0.00   0.01  -0.00    -0.00   0.07   0.04
  30   1     0.00   0.00   0.03     0.00  -0.01  -0.01     0.01  -0.03  -0.04
  31   1    -0.09   0.07  -0.20    -0.16   0.12  -0.28    -0.01   0.01  -0.04
  32   8     0.06  -0.02   0.07     0.11  -0.04   0.11     0.02  -0.00   0.02
  33   1    -0.11   0.03  -0.07    -0.17   0.06  -0.12    -0.04   0.00  -0.02
  34   1     0.11  -0.01   0.04    -0.11   0.01  -0.03    -0.00  -0.01  -0.10
  35   8    -0.03   0.00  -0.01     0.03   0.00   0.01     0.00  -0.01  -0.01
  36   1     0.04  -0.00   0.01    -0.05  -0.01  -0.02    -0.02   0.11   0.01
                     55                     56                     57
                        a                      a                      a 
 Frequencies --   520.6194               670.4028               406.0646
 Red. masses --    99.0000                99.0000                99.0000
 Frc consts  --    99.0000                99.0000                99.0000
 IR Inten    --    99.0000                99.0000                99.0000
 Raman Activ --     0.0000                 0.0000                 0.0000
 Depolar     --     0.0000                 0.0000                 0.0000
 Atom AN      X      Y      Z        X      Y      Z        X      Y      Z
   1   1     0.08   0.04   0.02    -0.04  -0.02   0.02     0.04   0.01  -0.01
   2   8     0.01  -0.04   0.01     0.01   0.00  -0.00     0.05  -0.01   0.01
   3   1    -0.06   0.07  -0.06     0.03  -0.03   0.00    -0.02   0.03   0.04
   4   1     0.02   0.12  -0.15    -0.12   0.09   0.13     0.00  -0.01   0.01
   5   8    -0.03  -0.02   0.01     0.06  -0.05   0.10     0.01   0.01   0.00
   6   1     0.02  -0.05   0.09    -0.10   0.11  -0.30     0.00   0.01  -0.00
   7   1     0.12  -0.00   0.02     0.09  -0.06  -0.16    -0.06   0.06   0.28
   8   8    -0.01   0.01  -0.02    -0.02   0.05   0.10    -0.17   0.07   0.59
   9   1    -0.08  -0.03  -0.02    -0.08  -0.14   0.09    -0.05   0.10   0.07
  10   1     0.04   0.05  -0.10    -0.14  -0.26   0.43     0.06  -0.13  -0.06
  11   8    -0.00  -0.00   0.01     0.06   0.11  -0.20     0.09  -0.25  -0.20
  12   1    -0.04  -0.07   0.16    -0.05  -0.09   0.18     0.08   0.00  -0.06
  13   1     0.12   0.17  -0.00    -0.05  -0.07  -0.00    -0.00   0.01  -0.00
  14   8    -0.02  -0.03   0.01    -0.02  -0.02  -0.04     0.01  -0.02  -0.02
  15   1    -0.09  -0.02  -0.13     0.04   0.12   0.09    -0.01   0.13   0.03
  16   1    -0.00   0.03  -0.09    -0.00   0.02   0.10     0.01   0.00  -0.18
  17   8     0.01   0.02  -0.01     0.01  -0.02  -0.06     0.01   0.07  -0.50
  18   1     0.09  -0.04   0.02    -0.11   0.07  -0.04     0.06  -0.03  -0.11
  19   1     0.09  -0.37   0.09    -0.02  -0.05  -0.00    -0.00   0.02  -0.00
  20   8     0.02   0.07  -0.07    -0.01  -0.01  -0.02     0.01  -0.06   0.03
  21   1    -0.12   0.18   0.31     0.11   0.05   0.06    -0.01  -0.04  -0.04
  22   1     0.05   0.16   0.20     0.02  -0.00   0.01     0.01   0.02   0.03
  23   8     0.01  -0.02  -0.08    -0.02   0.01   0.00     0.03   0.02   0.07
  24   1    -0.15  -0.18   0.09     0.06  -0.04   0.00    -0.02   0.00   0.02
  25   1    -0.06   0.01  -0.01    -0.04  -0.08  -0.03    -0.00   0.01   0.00
  26   8     0.00   0.04  -0.01    -0.01   0.03  -0.04    -0.03   0.03  -0.00
  27   1    -0.01  -0.13   0.03     0.02   0.06   0.05    -0.02  -0.04  -0.02
  28   1    -0.08   0.04   0.05    -0.09   0.24   0.04    -0.04  -0.04   0.03
  29   8     0.04   0.00  -0.00     0.03  -0.07  -0.02    -0.04   0.04   0.03
  30   1    -0.01   0.00  -0.09    -0.02   0.05  -0.01    -0.02   0.01  -0.05
  31   1     0.02  -0.06  -0.35    -0.12   0.10  -0.20     0.00  -0.00  -0.01
  32   8     0.02   0.06   0.07     0.08  -0.03   0.08    -0.00   0.00   0.00
  33   1    -0.14  -0.23   0.24    -0.10   0.02  -0.06     0.01  -0.02   0.02
  34   1     0.05  -0.01  -0.01     0.26  -0.01   0.11    -0.02   0.01  -0.03
  35   8    -0.02  -0.01  -0.01    -0.07  -0.00  -0.02     0.04   0.06  -0.01
  36   1     0.03   0.02   0.01     0.08  -0.05   0.02    -0.04   0.03  -0.02
                     58                     59                     60
                        a                      a                      a 
 Frequencies --   506.2031               882.0243               763.8300
 Red. masses --    99.0000                99.0000                99.0000
 Frc consts  --    99.0000                99.0000                99.0000
 IR Inten    --    99.0000                99.0000                99.0000
 Raman Activ --     0.0000                 0.0000                 0.0000
 Depolar     --     0.0000                 0.0000                 0.0000
 Atom AN      X      Y      Z        X      Y      Z        X      Y      Z
   1   1     0.03   0.02   0.02    -0.05   0.01   0.70     0.04   0.02  -0.17
   2   8     0.01  -0.01   0.01    -0.00  -0.00  -0.17    -0.00  -0.01   0.02
   3   1    -0.02   0.02  -0.06    -0.00  -0.02   0.27    -0.01   0.01   0.04
   4   1     0.04   0.11  -0.17    -0.01  -0.04   0.05    -0.02   0.05  -0.00
   5   8    -0.04  -0.02   0.03     0.01  -0.01   0.01     0.01   0.03   0.00
   6   1     0.03  -0.03   0.10    -0.01   0.02  -0.04    -0.03  -0.06  -0.01
   7   1    -0.03   0.00   0.01     0.03   0.03   0.12     0.13   0.02   0.13
   8   8    -0.00  -0.01   0.01    -0.02  -0.05  -0.04    -0.11  -0.03  -0.11
   9   1     0.01   0.01  -0.00     0.14   0.07   0.01     0.47   0.06   0.25
  10   1    -0.01   0.05  -0.01     0.05  -0.01  -0.10     0.11  -0.03  -0.21
  11   8     0.01  -0.01   0.01    -0.04  -0.03   0.01    -0.12  -0.06   0.03
  12   1    -0.04  -0.04  -0.01     0.04   0.05   0.00     0.16   0.22  -0.11
  13   1    -0.09  -0.15  -0.01    -0.02   0.03   0.01    -0.02  -0.06  -0.01
  14   8     0.01   0.02  -0.02     0.00   0.00  -0.01     0.00   0.01   0.00
  15   1     0.06   0.09   0.11     0.01  -0.01   0.01     0.01   0.01   0.02
  16   1     0.02  -0.09  -0.05    -0.04   0.16  -0.04     0.01  -0.05  -0.05
  17   8    -0.02   0.03  -0.01     0.00  -0.12   0.01     0.01   0.01   0.04
  18   1     0.03   0.03   0.01    -0.05   0.43  -0.03     0.03   0.06   0.00
  19   1    -0.44  -0.23  -0.14     0.05  -0.02   0.02    -0.10  -0.02  -0.04
  20   8     0.08   0.03   0.00    -0.03   0.01  -0.02     0.07   0.01   0.02
  21   1     0.30   0.14   0.18     0.12   0.05   0.06    -0.19  -0.07  -0.07
  22   1     0.02   0.21   0.24     0.00  -0.01  -0.01    -0.02   0.00  -0.01
  23   8     0.02  -0.04  -0.09     0.00   0.01   0.01     0.01   0.00  -0.00
  24   1    -0.19  -0.21   0.10     0.01   0.00  -0.00    -0.04   0.02  -0.00
  25   1    -0.05  -0.04  -0.02    -0.12   0.16   0.00    -0.02  -0.16  -0.04
  26   8     0.01   0.01   0.00     0.03  -0.01  -0.08     0.00   0.04   0.03
  27   1     0.01   0.03   0.04     0.03  -0.07   0.15    -0.01  -0.02  -0.03
  28   1     0.03   0.00  -0.02     0.01  -0.01  -0.00    -0.18   0.43   0.09
  29   8    -0.01  -0.00  -0.01    -0.01  -0.00  -0.00     0.03  -0.15   0.01
  30   1     0.01  -0.01   0.04    -0.00   0.01   0.01    -0.06   0.13   0.00
  31   1    -0.03   0.07   0.31     0.00  -0.00   0.01     0.00  -0.00  -0.00
  32   8    -0.02  -0.07  -0.04    -0.00  -0.00  -0.01    -0.00   0.01  -0.00
  33   1     0.12   0.23  -0.24     0.01  -0.00   0.01     0.00  -0.01   0.01
  34   1     0.03   0.00   0.02     0.05  -0.00   0.02     0.25  -0.01   0.09
  35   8    -0.01   0.01  -0.00    -0.02   0.00  -0.01    -0.06   0.00  -0.03
  36   1     0.02  -0.01   0.00     0.01  -0.00   0.00     0.06   0.00   0.02
                     61                     62                     63
                        a                      a                      a 
 Frequencies --   946.4909               783.7615               821.6475
 Red. masses --    99.0000                99.0000                99.0000
 Frc consts  --    99.0000                99.0000                99.0000
 IR Inten    --    99.0000                99.0000                99.0000
 Raman Activ --     0.0000                 0.0000                 0.0000
 Depolar     --     0.0000                 0.0000                 0.0000
 Atom AN      X      Y      Z        X      Y      Z        X      Y      Z
   1   1    -0.04  -0.00   0.35    -0.03  -0.01   0.07    -0.03  -0.00   0.20
   2   8     0.00  -0.00  -0.08    -0.01   0.01  -0.00    -0.00  -0.00  -0.04
   3   1    -0.00   0.00   0.10     0.02  -0.01  -0.06     0.02  -0.02   0.04
   4   1     0.01   0.31  -0.29     0.02   0.01  -0.05    -0.06  -0.09   0.18
   5   8    -0.01  -0.11   0.07    -0.00  -0.05   0.01     0.03   0.07  -0.01
   6   1     0.00   0.14  -0.11     0.03   0.10  -0.03    -0.07  -0.13  -0.04
   7   1     0.04  -0.02  -0.08    -0.10  -0.00  -0.05    -0.06   0.00  -0.02
   8   8    -0.02   0.05  -0.00     0.06   0.02   0.03     0.05   0.01   0.01
   9   1     0.06  -0.04   0.08    -0.27  -0.02  -0.15    -0.11  -0.00  -0.07
  10   1     0.01  -0.02   0.00    -0.05   0.19  -0.05    -0.01   0.05  -0.00
  11   8    -0.01   0.01  -0.02     0.04  -0.07   0.09     0.02  -0.02   0.02
  12   1     0.00  -0.00   0.04     0.02   0.07  -0.37    -0.01  -0.01  -0.06
  13   1    -0.01   0.10   0.03    -0.01  -0.18  -0.04     0.05  -0.69  -0.17
  14   8    -0.00  -0.03  -0.02     0.01   0.04   0.01    -0.01   0.13   0.04
  15   1     0.01   0.02   0.01     0.02  -0.02   0.02     0.01  -0.04   0.00
  16   1     0.06  -0.26   0.06    -0.02   0.06  -0.05     0.04  -0.12   0.14
  17   8    -0.01   0.16   0.02    -0.04   0.01  -0.00     0.04   0.05  -0.03
  18   1     0.10  -0.48   0.04     0.08  -0.17   0.04    -0.09  -0.08  -0.03
  19   1    -0.08   0.07  -0.04     0.17   0.08   0.05    -0.18  -0.13  -0.05
  20   8     0.07  -0.03   0.05    -0.10  -0.02  -0.03     0.11   0.05   0.00
  21   1    -0.25  -0.13  -0.16     0.28   0.07   0.07    -0.29  -0.05  -0.05
  22   1     0.01   0.01   0.01     0.02  -0.01   0.00    -0.03   0.03   0.01
  23   8    -0.00  -0.01  -0.01    -0.02   0.01  -0.00     0.03  -0.01  -0.01
  24   1    -0.01   0.01   0.00     0.09  -0.04  -0.00    -0.12   0.05   0.01
  25   1    -0.01   0.32   0.06    -0.02   0.16   0.03    -0.04  -0.12  -0.04
  26   8    -0.00  -0.06  -0.05     0.01  -0.03  -0.02    -0.00   0.05  -0.02
  27   1     0.02   0.05   0.06     0.01  -0.03   0.06    -0.01  -0.10   0.02
  28   1     0.00   0.00  -0.00    -0.24   0.51   0.12     0.01  -0.06  -0.00
  29   8    -0.00  -0.00  -0.01     0.06  -0.14   0.03    -0.01   0.03   0.01
  30   1    -0.00   0.00   0.00    -0.05   0.10  -0.03     0.01  -0.03  -0.01
  31   1    -0.02   0.02  -0.00     0.01  -0.00  -0.00     0.03  -0.03  -0.13
  32   8     0.01  -0.02   0.01     0.00   0.03  -0.01     0.00   0.08   0.01
  33   1    -0.03   0.03  -0.06     0.01  -0.02   0.04    -0.03  -0.11   0.13
  34   1     0.02  -0.00   0.01    -0.12   0.00  -0.05    -0.05   0.00  -0.02
  35   8    -0.01   0.00   0.00     0.03  -0.01   0.01     0.01  -0.01   0.00
  36   1     0.01  -0.00   0.00    -0.04   0.04  -0.00    -0.02   0.02  -0.00
                     64                     65                     66
                        a                      a                      a 
 Frequencies --   801.4198               860.0857               714.4655
 Red. masses --    99.0000                99.0000                99.0000
 Frc consts  --    99.0000                99.0000                99.0000
 IR Inten    --    99.0000                99.0000                99.0000
 Raman Activ --     0.0000                 0.0000                 0.0000
 Depolar     --     0.0000                 0.0000                 0.0000
 Atom AN      X      Y      Z        X      Y      Z        X      Y      Z
   1   1     0.03   0.01  -0.10    -0.02   0.01   0.19     0.03   0.01  -0.01
   2   8     0.00  -0.01   0.02     0.00  -0.01  -0.04     0.00   0.00  -0.00
   3   1    -0.02   0.02   0.01     0.01  -0.01   0.07    -0.04   0.04   0.01
   4   1     0.07   0.18  -0.28    -0.00  -0.36   0.33    -0.04  -0.14   0.17
   5   8    -0.04  -0.09   0.03     0.02   0.11  -0.07     0.01   0.06  -0.07
   6   1     0.08   0.16   0.03     0.00  -0.14   0.11    -0.04  -0.18   0.05
   7   1     0.08   0.00   0.03     0.07  -0.02  -0.07     0.04  -0.03  -0.08
   8   8    -0.07  -0.01  -0.04    -0.06   0.06  -0.02    -0.01   0.02   0.03
   9   1     0.21   0.01   0.12     0.18  -0.05   0.17     0.03  -0.05   0.08
  10   1     0.04  -0.09  -0.01     0.04  -0.06  -0.04    -0.03  -0.07   0.09
  11   8    -0.04   0.02  -0.03    -0.03   0.01  -0.02     0.02   0.03  -0.06
  12   1     0.02   0.00   0.16     0.02   0.02   0.09    -0.02  -0.03   0.09
  13   1     0.08  -0.54  -0.14    -0.02   0.03   0.01     0.19   0.00  -0.05
  14   8    -0.01   0.08   0.05    -0.00  -0.00  -0.01     0.01  -0.04   0.08
  15   1    -0.03   0.04  -0.02     0.01  -0.00   0.02    -0.16   0.13  -0.17
  16   1    -0.03   0.09  -0.16     0.00  -0.06  -0.09    -0.02   0.14   0.09
  17   8    -0.05  -0.03   0.04    -0.06   0.11   0.02     0.03  -0.04  -0.04
  18   1     0.12   0.03   0.04     0.17  -0.54   0.07    -0.08  -0.05  -0.03
  19   1     0.21   0.13   0.07     0.08   0.02   0.02    -0.08  -0.09  -0.02
  20   8    -0.11  -0.04  -0.00    -0.08   0.01  -0.07     0.01   0.02  -0.04
  21   1     0.26   0.04   0.04     0.29   0.11   0.13    -0.02   0.03   0.05
  22   1     0.04  -0.03  -0.01     0.05  -0.01   0.01    -0.05   0.03   0.01
  23   8    -0.03   0.02   0.01    -0.03   0.01  -0.01     0.04  -0.02   0.00
  24   1     0.15  -0.06  -0.01     0.12  -0.07   0.00    -0.17   0.08   0.00
  25   1     0.16   0.12   0.06    -0.09  -0.17  -0.06     0.29   0.48   0.16
  26   8    -0.03  -0.02   0.02     0.01   0.04  -0.02    -0.06  -0.14   0.00
  27   1    -0.03   0.03  -0.14     0.00  -0.02   0.04    -0.00   0.18  -0.12
  28   1     0.09  -0.19  -0.05     0.04  -0.07  -0.02    -0.06   0.14   0.03
  29   8    -0.03   0.05  -0.01    -0.02   0.02  -0.01     0.03  -0.04  -0.00
  30   1     0.02  -0.03   0.02     0.01  -0.01   0.02    -0.02   0.04  -0.01
  31   1     0.02  -0.01  -0.04    -0.00   0.00   0.00     0.17  -0.13   0.27
  32   8     0.00   0.06  -0.01    -0.00  -0.00  -0.00    -0.11   0.04  -0.10
  33   1    -0.02  -0.07   0.08     0.02  -0.00   0.01     0.15  -0.06   0.12
  34   1     0.10  -0.00   0.04     0.08  -0.01   0.02     0.08  -0.00   0.03
  35   8    -0.03   0.01  -0.01    -0.02  -0.00  -0.01    -0.02   0.00  -0.01
  36   1     0.03  -0.02   0.01     0.02   0.00   0.01     0.03  -0.02   0.01
                     67                     68                     69
                        a                      a                      a 
 Frequencies --  1566.4288              1553.4457              1524.8478
 Red. masses --    99.0000                99.0000                99.0000
[...]
   3   1    -0.02  -0.01   0.00    -0.10  -0.06  -0.01    -0.00  -0.00   0.00
   4   1     0.61   0.35   0.41    -0.18  -0.11  -0.13    -0.23  -0.14  -0.15
   5   8    -0.17  -0.08  -0.09     0.07   0.02   0.02     0.08   0.02   0.02
   6   1     0.06  -0.05  -0.05    -0.08   0.04   0.05    -0.10   0.05   0.05
   7   1     0.00  -0.00   0.01     0.00  -0.00  -0.00    -0.00  -0.00   0.00
   8   8     0.00  -0.01  -0.01     0.01  -0.01  -0.02     0.00  -0.00  -0.01
   9   1    -0.02   0.03   0.04    -0.04   0.06   0.07    -0.01   0.01   0.02
  10   1     0.00  -0.00  -0.00     0.00  -0.00   0.00     0.00   0.00   0.00
  11   8     0.00  -0.00  -0.00     0.00  -0.00  -0.00    -0.00   0.00  -0.00
  12   1    -0.01   0.01   0.00    -0.02   0.01   0.01     0.01  -0.01  -0.00
  13   1    -0.03   0.03  -0.11    -0.04   0.03  -0.12    -0.03   0.02  -0.10
  14   8     0.01  -0.01   0.03     0.01  -0.01   0.03     0.01  -0.01   0.02
  15   1     0.00  -0.00   0.00     0.01  -0.00   0.00     0.00  -0.00   0.00
  16   1    -0.04  -0.01  -0.00     0.01   0.00   0.00    -0.11  -0.02  -0.00
  17   8     0.02   0.01  -0.05    -0.00  -0.00   0.00     0.03   0.01  -0.03
  18   1    -0.06   0.00   0.22     0.01  -0.00  -0.02    -0.03   0.00   0.12
  19   1    -0.01  -0.01   0.02    -0.00   0.00  -0.00     0.05  -0.04  -0.10
  20   8     0.01  -0.07   0.03    -0.00   0.03  -0.01     0.01  -0.18   0.13
  21   1    -0.02   0.25  -0.14     0.01  -0.11   0.06    -0.07   0.73  -0.42
  22   1    -0.00  -0.00  -0.00     0.00   0.00   0.00    -0.00  -0.00  -0.00
  23   8    -0.00  -0.00  -0.01     0.00   0.00   0.00    -0.00  -0.01  -0.03
  24   1     0.01   0.01   0.04    -0.00  -0.01  -0.02     0.02   0.04   0.10
  25   1    -0.05  -0.06   0.28    -0.04  -0.06   0.25     0.02   0.03  -0.13
  26   8     0.02   0.02  -0.07    -0.00   0.02  -0.06    -0.01  -0.01   0.03
  27   1    -0.03   0.00  -0.00     0.05  -0.02  -0.01     0.02  -0.00  -0.00
  28   1     0.00   0.00  -0.00     0.00  -0.00   0.01    -0.08  -0.01  -0.13
  29   8    -0.00   0.00  -0.00    -0.00   0.00  -0.00     0.02   0.00   0.03
  30   1    -0.00  -0.00   0.00    -0.00  -0.00   0.00    -0.00  -0.00   0.01
  31   1     0.00   0.00   0.00     0.00   0.00  -0.00     0.01   0.01  -0.00
  32   8    -0.00   0.01   0.00     0.00  -0.00   0.00    -0.00  -0.01  -0.00
  33   1     0.01  -0.02  -0.02    -0.00   0.00  -0.00    -0.00   0.02   0.02
  34   1     0.00  -0.01  -0.00     0.00   0.00  -0.00    -0.00  -0.01   0.00
  35   8    -0.00   0.00  -0.00    -0.00  -0.00   0.00     0.00   0.00  -0.00
  36   1     0.00   0.00   0.00     0.00  -0.00   0.00    -0.00   0.00   0.00
                     88                     89                     90
                        a                      a                      a 
 Frequencies --  3277.9649              2951.2532              3436.2740
 Red. masses --    99.0000                99.0000                99.0000
 Frc consts  --    99.0000                99.0000                99.0000
 IR Inten    --    99.0000                99.0000                99.0000
 Raman Activ --     0.0000                 0.0000                 0.0000
 Depolar     --     0.0000                 0.0000                 0.0000
 Atom AN      X      Y      Z        X      Y      Z        X      Y      Z
   1   1    -0.01   0.01  -0.00     0.03  -0.04  -0.00    -0.04   0.13  -0.01
   2   8     0.00  -0.00   0.00    -0.00   0.02   0.00     0.17   0.13   0.01
   3   1     0.00   0.00  -0.00    -0.02  -0.02  -0.00    -0.65  -0.66  -0.04
   4   1    -0.00  -0.00  -0.00     0.12   0.06   0.08    -0.00  -0.00  -0.00
   5   8     0.00   0.00   0.00    -0.03  -0.01  -0.02     0.00   0.00   0.00
   6   1     0.00  -0.00  -0.00     0.01  -0.01  -0.01     0.00  -0.00  -0.00
   7   1     0.00  -0.00  -0.00     0.00   0.01  -0.02     0.03   0.24  -0.07
   8   8    -0.00   0.00   0.00    -0.02   0.02   0.03    -0.01  -0.04   0.03
   9   1     0.01  -0.01  -0.01     0.06  -0.07  -0.11     0.04  -0.07  -0.06
  10   1    -0.59  -0.25  -0.35    -0.01  -0.00  -0.00     0.00   0.00   0.00
  11   8     0.25  -0.03   0.07    -0.00   0.00   0.00     0.00  -0.00   0.00
  12   1    -0.40   0.39   0.08     0.02  -0.02  -0.01    -0.01   0.01   0.00
  13   1     0.00  -0.00   0.01     0.01  -0.01   0.03     0.00  -0.00   0.00
  14   8    -0.00  -0.00  -0.00    -0.00   0.00  -0.01    -0.00   0.00   0.00
  15   1     0.01   0.00  -0.01    -0.00   0.00  -0.00     0.00   0.00  -0.00
  16   1    -0.01  -0.00   0.00     0.05   0.01   0.02     0.00  -0.00  -0.00
  17   8     0.00   0.00   0.00    -0.08   0.01   0.21     0.00   0.00  -0.01
  18   1     0.00   0.00  -0.00     0.25  -0.02  -0.88    -0.01  -0.00   0.04
  19   1     0.00  -0.00  -0.00     0.01  -0.01  -0.00    -0.00   0.00   0.00
  20   8     0.00  -0.00   0.00     0.00  -0.05   0.03     0.00  -0.00  -0.00
  21   1    -0.00   0.00  -0.00    -0.01   0.19  -0.11    -0.00   0.00  -0.00
  22   1    -0.00  -0.00  -0.00     0.00   0.00   0.00    -0.00  -0.00   0.00
  23   8    -0.00  -0.00  -0.00     0.00   0.00   0.01     0.00   0.00   0.00
  24   1     0.00   0.00   0.00    -0.01  -0.02  -0.05    -0.00  -0.00  -0.00
  25   1    -0.00  -0.00   0.01    -0.01  -0.02   0.07    -0.00  -0.00   0.01
  26   8    -0.01   0.00  -0.00     0.00   0.00  -0.02    -0.00  -0.00  -0.00
  27   1     0.02  -0.00  -0.01    -0.00   0.00  -0.00     0.01   0.00  -0.00
  28   1    -0.03  -0.01  -0.06    -0.00   0.00  -0.00    -0.00   0.00   0.00
  29   8     0.01   0.00   0.01     0.00  -0.00   0.00     0.00   0.00  -0.00
  30   1    -0.02  -0.00   0.01     0.00   0.00  -0.00    -0.00  -0.00   0.00
  31   1     0.00   0.00   0.00     0.00  -0.00  -0.00     0.00   0.00  -0.00
  32   8    -0.00  -0.00  -0.00     0.00  -0.00  -0.00    -0.00   0.00   0.00
  33   1    -0.00  -0.00  -0.00     0.00   0.00   0.00     0.00  -0.00  -0.00
  34   1     0.02   0.26  -0.02    -0.00   0.01   0.00    -0.00  -0.02   0.00
  35   8    -0.01  -0.06   0.01     0.00  -0.00  -0.00    -0.00   0.00   0.00
  36   1     0.00  -0.01  -0.01    -0.00  -0.00   0.00     0.00   0.00  -0.01
                     91                     92                     93
                        a                      a                      a 
 Frequencies --  3218.9964              3225.5673              3160.8033
 Red. masses --    99.0000                99.0000                99.0000
 Frc consts  --    99.0000                99.0000                99.0000
 IR Inten    --    99.0000                99.0000                99.0000
 Raman Activ --     0.0000                 0.0000                 0.0000
 Depolar     --     0.0000                 0.0000                 0.0000
 Atom AN      X      Y      Z        X      Y      Z        X      Y      Z
   1   1    -0.06   0.11  -0.01    -0.08   0.16  -0.01     0.00  -0.00   0.00
   2   8     0.01  -0.04   0.00     0.02  -0.03   0.00    -0.00   0.00   0.00
   3   1     0.04   0.04   0.00    -0.01  -0.03   0.00     0.00   0.00  -0.00
   4   1    -0.24  -0.12  -0.13    -0.09  -0.04  -0.05     0.03   0.02   0.02
   5   8    -0.06   0.07   0.08    -0.02   0.02   0.03    -0.01  -0.00  -0.00
   6   1     0.47  -0.17  -0.21     0.15  -0.06  -0.07     0.02  -0.01  -0.01
   7   1    -0.01  -0.02   0.02     0.02   0.06  -0.04    -0.00  -0.00   0.00
   8   8    -0.04   0.06   0.05     0.08  -0.14  -0.12    -0.00   0.01   0.01
   9   1     0.15  -0.20  -0.23    -0.37   0.49   0.55     0.02  -0.03  -0.03
  10   1    -0.02  -0.01  -0.02     0.05   0.02   0.04     0.01   0.01   0.01
  11   8    -0.01   0.01   0.01     0.02  -0.04  -0.02    -0.02   0.01   0.00
  12   1     0.06  -0.05  -0.01    -0.14   0.12   0.03     0.07  -0.06  -0.01
  13   1     0.02  -0.01   0.06     0.01  -0.01   0.05     0.00  -0.00   0.00
  14   8    -0.00   0.00  -0.01    -0.00   0.00  -0.01    -0.00   0.00  -0.00
  15   1    -0.01   0.00   0.00     0.00  -0.00  -0.00     0.00   0.00   0.00
  16   1    -0.04  -0.01   0.00     0.09   0.02  -0.00     0.01   0.00  -0.00
  17   8     0.01   0.00  -0.02    -0.03  -0.00   0.03    -0.00  -0.00   0.00
  18   1    -0.02   0.00   0.07     0.02   0.00  -0.11     0.00  -0.00  -0.01
  19   1     0.01  -0.01  -0.02     0.00  -0.00  -0.01    -0.01   0.01   0.02
  20   8     0.00  -0.01   0.02     0.00  -0.01   0.01    -0.00   0.03  -0.02
  21   1    -0.01   0.07  -0.04    -0.01   0.04  -0.02     0.01  -0.12   0.07
  22   1    -0.00  -0.00  -0.00    -0.00  -0.00  -0.00     0.00   0.00  -0.00
  23   8    -0.00  -0.00  -0.00    -0.00  -0.00  -0.00     0.00   0.00   0.00
  24   1     0.00   0.01   0.02     0.00   0.00   0.01    -0.00  -0.01  -0.02
  25   1    -0.11  -0.13   0.60    -0.05  -0.05   0.26    -0.00  -0.00   0.02
  26   8     0.06   0.03  -0.15     0.02   0.01  -0.06     0.00   0.00  -0.01
  27   1    -0.12   0.02   0.01    -0.04   0.01   0.00    -0.00  -0.00   0.00
  28   1     0.01   0.00   0.02    -0.03  -0.00  -0.05    -0.48  -0.05  -0.82
  29   8    -0.00  -0.00  -0.00     0.01   0.00   0.01     0.12   0.01   0.19
  30   1     0.00   0.00  -0.00    -0.01  -0.00   0.00    -0.00  -0.01   0.04
  31   1     0.00   0.00   0.00    -0.00   0.00   0.00     0.00   0.00  -0.00
  32   8    -0.00  -0.00  -0.00     0.00  -0.00  -0.00    -0.00   0.00   0.00
  33   1    -0.00   0.01   0.01    -0.00   0.00   0.00     0.00  -0.00  -0.00
  34   1     0.00   0.05  -0.01    -0.02  -0.21   0.02    -0.00  -0.01   0.00
  35   8    -0.00  -0.01   0.00     0.01   0.05  -0.01     0.00   0.00  -0.00
  36   1     0.00  -0.00  -0.00    -0.00   0.01   0.01     0.00   0.00   0.00
                     94                     95                     96
                        a                      a                      a 
 Frequencies --  3248.7872              3523.7587              3283.9773
 Red. masses --    99.0000                99.0000                99.0000
 Frc consts  --    99.0000                99.0000                99.0000
 IR Inten    --    99.0000                99.0000                99.0000
 Raman Activ --     0.0000                 0.0000                 0.0000
 Depolar     --     0.0000                 0.0000                 0.0000
 Atom AN      X      Y      Z        X      Y      Z        X      Y      Z
   1   1    -0.01   0.01  -0.00     0.00   0.00  -0.00     0.01  -0.02   0.00
   2   8     0.00  -0.00   0.00    -0.00  -0.00   0.00    -0.00   0.00  -0.00
   3   1    -0.00  -0.00  -0.00     0.00   0.00  -0.00     0.01   0.01   0.00
   4   1     0.00   0.00   0.00    -0.00  -0.00  -0.00     0.00   0.00   0.00
   5   8    -0.00  -0.00  -0.00     0.00   0.00   0.00     0.00  -0.00  -0.00
   6   1     0.00   0.00  -0.00     0.00   0.00  -0.00    -0.00   0.00   0.00
   7   1     0.00   0.01  -0.01     0.00   0.00  -0.00    -0.00   0.00   0.00
   8   8     0.01  -0.02  -0.01     0.00  -0.00  -0.00    -0.01   0.01   0.01
   9   1    -0.04   0.05   0.05    -0.00   0.00   0.00     0.03  -0.03  -0.04
  10   1     0.01   0.00   0.01    -0.00  -0.00   0.00    -0.44  -0.18  -0.25
  11   8     0.00  -0.00  -0.00     0.00   0.00  -0.00     0.04   0.10   0.07
  12   1    -0.01   0.01   0.00    -0.00   0.00   0.00     0.26  -0.22  -0.03
  13   1     0.00  -0.00   0.00     0.00   0.00  -0.00    -0.00   0.00  -0.02
  14   8    -0.00   0.00  -0.00     0.00   0.00  -0.00     0.00  -0.00   0.00
  15   1     0.00  -0.00  -0.00    -0.00  -0.00   0.00    -0.01  -0.00   0.00
  16   1    -0.93  -0.19   0.05    -0.00  -0.00  -0.00     0.00   0.00  -0.00
  17   8     0.22   0.05   0.01     0.00  -0.00   0.00     0.00  -0.00  -0.00
  18   1     0.06   0.00  -0.10    -0.00  -0.00   0.00    -0.00  -0.00   0.01
  19   1    -0.00   0.00   0.01    -0.00   0.00   0.01    -0.00  -0.00   0.00
  20   8    -0.00   0.02  -0.01     0.00  -0.00  -0.00    -0.00   0.00  -0.00
  21   1     0.01  -0.08   0.05    -0.00   0.00  -0.00     0.00  -0.01   0.00
  22   1     0.00   0.01   0.00    -0.33  -0.66   0.62     0.00   0.00  -0.00
  23   8     0.00   0.01   0.02     0.08   0.17  -0.14    -0.00  -0.00  -0.00
  24   1    -0.01  -0.03  -0.09     0.00   0.01  -0.07     0.00   0.00   0.00
  25   1    -0.00  -0.00   0.01     0.00   0.00  -0.00     0.00   0.00  -0.02
  26   8     0.00   0.00  -0.00    -0.00  -0.00   0.00     0.00  -0.00   0.00
  27   1    -0.00   0.00   0.00     0.00   0.00  -0.00    -0.01  -0.00   0.00
  28   1    -0.00  -0.00  -0.00    -0.00  -0.00  -0.00     0.02   0.00   0.03
  29   8     0.00   0.00   0.00     0.00   0.00   0.00    -0.01  -0.00  -0.01
  30   1    -0.00  -0.00   0.00    -0.00  -0.00   0.00     0.01   0.00  -0.01
  31   1    -0.00  -0.00   0.00     0.00   0.00   0.00     0.00   0.00  -0.00
  32   8     0.00   0.00   0.00    -0.00   0.00   0.00    -0.00  -0.00   0.00
  33   1     0.00  -0.00  -0.00     0.00  -0.00  -0.00    -0.00   0.00   0.00
  34   1    -0.00  -0.03   0.00    -0.00  -0.00   0.00    -0.06  -0.73   0.07
  35   8     0.00   0.01  -0.00     0.00   0.00   0.00     0.02   0.18  -0.03
  36   1    -0.00   0.00   0.00     0.00   0.00  -0.00    -0.01   0.02   0.04
                     97                     98                     99
                        a                      a                      a 
 Frequencies --  3345.7952              3527.3565              3331.0284
 Red. masses --    99.0000                99.0000                99.0000
 Frc consts  --    99.0000                99.0000                99.0000
 IR Inten    --    99.0000                99.0000                99.0000
 Raman Activ --     0.0000                 0.0000                 0.0000
 Depolar     --     0.0000                 0.0000                 0.0000
 Atom AN      X      Y      Z        X      Y      Z        X      Y      Z
   1   1    -0.01   0.02   0.00    -0.00   0.00  -0.00    -0.00   0.01   0.00
   2   8     0.01   0.00   0.00     0.00   0.00   0.00    -0.00  -0.00  -0.00
   3   1    -0.03  -0.03  -0.00    -0.00  -0.00  -0.00     0.00   0.00   0.00
   4   1    -0.00   0.00   0.00     0.00   0.00  -0.00    -0.01  -0.01  -0.01
   5   8    -0.00   0.00  -0.00    -0.00  -0.00   0.00     0.00   0.00   0.00
   6   1     0.00  -0.00  -0.00     0.00  -0.00  -0.00     0.00  -0.00  -0.00
   7   1     0.01   0.06  -0.02    -0.00   0.01  -0.00    -0.00   0.00   0.00
   8   8     0.03  -0.06  -0.04    -0.00  -0.00   0.00     0.00  -0.00  -0.01
   9   1    -0.13   0.18   0.20     0.00  -0.00  -0.00    -0.01   0.01   0.01
  10   1    -0.29  -0.10  -0.16    -0.00   0.00  -0.00    -0.01  -0.00  -0.01
  11   8    -0.05   0.13   0.05    -0.00  -0.00   0.00    -0.00   0.00   0.00
  12   1     0.51  -0.45  -0.07     0.00  -0.00  -0.00     0.01  -0.01  -0.00
  13   1     0.00  -0.00   0.01     0.00   0.00  -0.00    -0.00   0.00  -0.01
  14   8     0.01   0.00  -0.01     0.00   0.00  -0.00     0.00  -0.00   0.00
  15   1    -0.02  -0.01   0.01    -0.01  -0.00   0.01     0.00   0.00  -0.00
  16   1    -0.01  -0.00   0.00     0.00   0.00   0.00     0.07   0.01  -0.01
  17   8     0.00   0.00   0.00     0.00  -0.00  -0.00    -0.01  -0.00  -0.01
  18   1     0.00   0.00  -0.02    -0.00  -0.00   0.00    -0.03  -0.00   0.08
  19   1    -0.00   0.00   0.00     0.00  -0.00  -0.00     0.01  -0.01  -0.02
  20   8    -0.00   0.00  -0.00    -0.00   0.00   0.00     0.00  -0.02   0.02
  21   1     0.00  -0.00   0.00     0.00  -0.00   0.00    -0.01   0.10  -0.05
  22   1    -0.00  -0.00   0.00    -0.00  -0.00   0.00     0.02   0.05  -0.00
  23   8    -0.00  -0.00  -0.01    -0.00  -0.00  -0.00     0.04   0.07   0.22
  24   1     0.00   0.01   0.02     0.00   0.00   0.00    -0.17  -0.33  -0.88
  25   1    -0.00  -0.00   0.01    -0.00   0.00   0.00    -0.00   0.00   0.00
  26   8     0.01  -0.00  -0.01    -0.00   0.00   0.00    -0.01   0.00   0.00
  27   1    -0.04   0.00   0.01     0.00  -0.00  -0.00     0.02  -0.00  -0.00
  28   1     0.02   0.00   0.03    -0.00  -0.00  -0.00     0.00   0.00   0.00
  29   8    -0.01  -0.00  -0.00    -0.00   0.00   0.00    -0.00  -0.00  -0.00
  30   1     0.02   0.01  -0.01     0.00   0.00  -0.00     0.00   0.00  -0.00
  31   1    -0.01  -0.01   0.00     0.00   0.00   0.00    -0.00  -0.00   0.00
  32   8     0.00   0.00  -0.00    -0.00  -0.00   0.00     0.00   0.00  -0.00
  33   1     0.00  -0.00  -0.00     0.00  -0.00  -0.00    -0.00   0.00   0.00
  34   1     0.05   0.52  -0.05     0.01   0.06  -0.03     0.00   0.01  -0.00
  35   8    -0.01  -0.12   0.02     0.07   0.03  -0.22    -0.00  -0.00   0.00
  36   1     0.01  -0.01  -0.03    -0.30  -0.18   0.90    -0.00  -0.00  -0.00
                    100                    101                    102
                        a                      a                      a 
 Frequencies --  3468.9172              3541.2929              3587.3753
 Red. masses --    99.0000                99.0000                99.0000
 Frc consts  --    99.0000                99.0000                99.0000
 IR Inten    --    99.0000                99.0000                99.0000
 Raman Activ --     0.0000                 0.0000                 0.0000
 Depolar     --     0.0000                 0.0000                 0.0000
 Atom AN      X      Y      Z        X      Y      Z        X      Y      Z
   1   1    -0.00   0.00  -0.00     0.00  -0.00   0.00    -0.00   0.00   0.00
   2   8     0.00  -0.00  -0.00    -0.00   0.00  -0.00    -0.00  -0.00  -0.00
   3   1    -0.00  -0.00   0.00    -0.00  -0.00  -0.00     0.00   0.00   0.00
   4   1     0.02   0.01   0.02    -0.00  -0.00  -0.00    -0.00  -0.00  -0.00
   5   8    -0.01  -0.00  -0.00     0.00  -0.00   0.00     0.00   0.00   0.00
   6   1     0.00  -0.00  -0.00    -0.00   0.00   0.00    -0.00  -0.00  -0.00
   7   1     0.00  -0.00   0.00     0.00   0.00  -0.00    -0.00  -0.00   0.00
   8   8     0.00  -0.00  -0.00     0.00  -0.00  -0.00    -0.00   0.00   0.00
   9   1    -0.00   0.00   0.00    -0.00   0.00   0.00     0.00   0.00  -0.00
  10   1    -0.00   0.00  -0.00    -0.00   0.00  -0.00    -0.00  -0.00  -0.00
  11   8     0.00  -0.00   0.00    -0.00   0.00   0.00    -0.01   0.01   0.00
  12   1    -0.00   0.00   0.00     0.02  -0.02  -0.00     0.03  -0.02  -0.01
  13   1    -0.01   0.01  -0.04    -0.02  -0.01   0.03    -0.00  -0.00   0.00
  14   8     0.00  -0.00   0.01    -0.19  -0.05   0.13    -0.02  -0.00   0.01
  15   1     0.00  -0.00   0.00     0.77   0.20  -0.55     0.06   0.02  -0.05
  16   1     0.00  -0.00   0.00    -0.00   0.00   0.00     0.00  -0.00  -0.00
  17   8    -0.00   0.00  -0.00     0.00  -0.00  -0.00    -0.00   0.00   0.00
  18   1    -0.00  -0.00   0.00    -0.00   0.00   0.00     0.00   0.00  -0.00
  19   1     0.01  -0.00  -0.03    -0.00   0.00   0.00    -0.00  -0.00  -0.00
  20   8    -0.00   0.01   0.00     0.00  -0.00  -0.00     0.00   0.00   0.00
  21   1     0.00  -0.02   0.02    -0.00   0.00  -0.00    -0.00  -0.00  -0.00
  22   1    -0.00  -0.00   0.00    -0.00  -0.00   0.00     0.00   0.00  -0.00
  23   8     0.00   0.00  -0.00     0.00   0.00  -0.00    -0.00   0.00   0.00
  24   1     0.00  -0.00   0.00    -0.00   0.00   0.00     0.00  -0.00  -0.00
  25   1    -0.00   0.00   0.00     0.00   0.00  -0.00     0.00   0.00  -0.00
  26   8     0.00  -0.00  -0.00     0.01  -0.00  -0.00     0.00  -0.00  -0.00
  27   1    -0.00   0.00  -0.00    -0.05   0.01   0.01    -0.00   0.00   0.00
  28   1     0.00   0.00   0.00     0.00   0.00  -0.00     0.04   0.01   0.02
  29   8     0.00  -0.00  -0.00    -0.02  -0.01   0.01     0.21   0.09  -0.05
  30   1    -0.00  -0.00   0.00     0.07   0.03  -0.02    -0.88  -0.36   0.19
  31   1    -0.07  -0.10  -0.01     0.00   0.00  -0.00    -0.00  -0.00  -0.00
  32   8     0.07  -0.15  -0.15    -0.00  -0.00  -0.00     0.00   0.00   0.00
  33   1    -0.22   0.71   0.61    -0.00   0.00   0.00     0.00  -0.00  -0.00
  34   1     0.00   0.00  -0.00     0.00   0.01  -0.00     0.00  -0.00  -0.00
  35   8     0.00  -0.00  -0.00     0.00  -0.00  -0.00     0.00   0.00  -0.00
  36   1    -0.00   0.00   0.00    -0.00  -0.00   0.01    -0.00  -0.00   0.00
