
                                 *****************
                                 * O   R   C   A *
                                 *****************

                                            #,                                       
                                            ###                                      
                                            ####                                     
                                            #####                                    
                                            ######                                   
                                           ########,                                 
                                     ,,################,,,,,                         
                               ,,#################################,,                 
                          ,,##########################################,,             
                       ,#########################################, ''#####,          
                    ,#############################################,,   '####,        
                  ,##################################################,,,,####,       
                ,###########''''           ''''###############################       
              ,#####''   ,,,,##########,,,,          '''####'''          '####       
            ,##' ,,,,###########################,,,                        '##       
           ' ,,###''''                  '''############,,,                           
         ,,##''                                '''############,,,,        ,,,,,,###''
      ,#''                                            '''#######################'''  
     '                                                          ''''####''''         
             ,#######,   #######,   ,#######,      ##                                
            ,#'     '#,  ##    ##  ,#'     '#,    #''#        ######   ,####,        
            ##       ##  ##   ,#'  ##            #'  '#       #        #'  '#        
            ##       ##  #######   ##           ,######,      #####,   #    #        
            '#,     ,#'  ##    ##  '#,     ,#' ,#      #,         ##   #,  ,#        
             '#######'   ##     ##  '#######'  #'      '#     #####' # '####'        



                  #######################################################
                  #                        -***-                        #
                  #          Department of theory and spectroscopy      #
                  #    Directorship and core code : Frank Neese         #
                  #        Max Planck Institute fuer Kohlenforschung    #
                  #                Kaiser Wilhelm Platz 1               #
                  #                 D-45470 Muelheim/Ruhr               #
                  #                      Germany                        #
                  #                                                     #
                  #                  All rights reserved                #
                  #                        -***-                        #
                  #######################################################


                         Program Version 5.0.1 -  RELEASE  -


 With contributions from (in alphabetic order):
   Daniel Aravena         : Magnetic Suceptibility
   Michael Atanasov       : Ab Initio Ligand Field Theory (pilot matlab implementation)
   Alexander A. Auer      : GIAO ZORA, VPT2 properties, NMR spectrum
   Ute Becker             : Parallelization
   Giovanni Bistoni       : ED, misc. LED, open-shell LED, HFLD
   Martin Brehm           : Molecular dynamics
   Dmytro Bykov           : SCF Hessian
   Vijay G. Chilkuri      : MRCI spin determinant printing, contributions to CSF-ICE
   Dipayan Datta          : RHF DLPNO-CCSD density
   Achintya Kumar Dutta   : EOM-CC, STEOM-CC
   Dmitry Ganyushin       : Spin-Orbit,Spin-Spin,Magnetic field MRCI
   Miquel Garcia          : C-PCM and meta-GGA Hessian, CC/C-PCM, Gaussian charge scheme
   Yang Guo               : DLPNO-NEVPT2, F12-NEVPT2, CIM, IAO-localization
   Andreas Hansen         : Spin unrestricted coupled pair/coupled cluster methods
   Benjamin Helmich-Paris : MC-RPA, TRAH-SCF, COSX integrals
   Lee Huntington         : MR-EOM, pCC
   Robert Izsak           : Overlap fitted RIJCOSX, COSX-SCS-MP3, EOM
   Marcus Kettner         : VPT2
   Christian Kollmar      : KDIIS, OOCD, Brueckner-CCSD(T), CCSD density, CASPT2, CASPT2-K
   Simone Kossmann        : Meta GGA functionals, TD-DFT gradient, OOMP2, MP2 Hessian
   Martin Krupicka        : Initial AUTO-CI
   Lucas Lang             : DCDCAS
   Marvin Lechner         : AUTO-CI (C++ implementation), FIC-MRCC
   Dagmar Lenk            : GEPOL surface, SMD
   Dimitrios Liakos       : Extrapolation schemes; Compound Job, initial MDCI parallelization
   Dimitrios Manganas     : Further ROCIS development; embedding schemes
   Dimitrios Pantazis     : SARC Basis sets
   Anastasios Papadopoulos: AUTO-CI, single reference methods and gradients
   Taras Petrenko         : DFT Hessian,TD-DFT gradient, ASA, ECA, R-Raman, ABS, FL, XAS/XES, NRVS
   Peter Pinski           : DLPNO-MP2, DLPNO-MP2 Gradient
   Christoph Reimann      : Effective Core Potentials
   Marius Retegan         : Local ZFS, SOC
   Christoph Riplinger    : Optimizer, TS searches, QM/MM, DLPNO-CCSD(T), (RO)-DLPNO pert. Triples
   Tobias Risthaus        : Range-separated hybrids, TD-DFT gradient, RPA, STAB
   Michael Roemelt        : Original ROCIS implementation
   Masaaki Saitow         : Open-shell DLPNO-CCSD energy and density
   Barbara Sandhoefer     : DKH picture change effects
   Avijit Sen             : IP-ROCIS
   Kantharuban Sivalingam : CASSCF convergence, NEVPT2, FIC-MRCI
   Bernardo de Souza      : ESD, SOC TD-DFT
   Georgi Stoychev        : AutoAux, RI-MP2 NMR, DLPNO-MP2 response
   Willem Van den Heuvel  : Paramagnetic NMR
   Boris Wezisla          : Elementary symmetry handling
   Frank Wennmohs         : Technical directorship


 We gratefully acknowledge several colleagues who have allowed us to
 interface, adapt or use parts of their codes:
   Stefan Grimme, W. Hujo, H. Kruse, P. Pracht,  : VdW corrections, initial TS optimization,
                  C. Bannwarth, S. Ehlert          DFT functionals, gCP, sTDA/sTD-DF
   Ed Valeev, F. Pavosevic, A. Kumar             : LibInt (2-el integral package), F12 methods
   Garnet Chan, S. Sharma, J. Yang, R. Olivares  : DMRG
   Ulf Ekstrom                                   : XCFun DFT Library
   Mihaly Kallay                                 : mrcc  (arbitrary order and MRCC methods)
   Jiri Pittner, Ondrej Demel                    : Mk-CCSD
   Frank Weinhold                                : gennbo (NPA and NBO analysis)
   Christopher J. Cramer and Donald G. Truhlar   : smd solvation model
   Lars Goerigk                                  : TD-DFT with DH, B97 family of functionals
   V. Asgeirsson, H. Jonsson                     : NEB implementation
   FAccTs GmbH                                   : IRC, NEB, NEB-TS, DLPNO-Multilevel, CI-OPT
                                                   MM, QMMM, 2- and 3-layer-ONIOM, Crystal-QMMM,
                                                   LR-CPCM, SF, NACMEs, symmetry and pop. for TD-DFT,
                                                   nearIR, NL-DFT gradient (VV10), updates on ESD,
                                                   ML-optimized integration grids
   S Lehtola, MJT Oliveira, MAL Marques          : LibXC Library
   Liviu Ungur et al                             : ANISO software


 Your calculation uses the libint2 library for the computation of 2-el integrals
 For citations please refer to: http://libint.valeyev.net

 Your ORCA version has been built with support for libXC version: 5.1.0
 For citations please refer to: https://tddft.org/programs/libxc/

 This ORCA versions uses:
   CBLAS   interface :  Fast vector & matrix operations
   LAPACKE interface :  Fast linear algebra routines
   SCALAPACK package :  Parallel linear algebra routines
   Shared memory     :  Shared parallel matrices
   BLAS/LAPACK       :  OpenBLAS 0.3.15  USE64BITINT DYNAMIC_ARCH NO_AFFINITY Haswell SINGLE_THREADED
        Core in use  :  Haswell
   Copyright (c) 2011-2014, The OpenBLAS Project


================================================================================

----- Orbital basis set information -----
Your calculation utilizes the basis: aug-cc-pVTZ 
    H, B-Ne : Obtained from the ccRepo (grant-hill.group.shef.ac.uk/ccrepo) Feb. 2017
              R. A. Kendall, T. H. Dunning, Jr., R. J. Harrison, J. Chem. Phys. 96, 6796 (1992)
         He : Obtained from the ccRepo (grant-hill.group.shef.ac.uk/ccrepo) Feb. 2017
              D. E. Woon, T. H. Dunning, Jr., J. Chem. Phys. 100, 2975 (1994)
  Li-Be, Na : Obtained from the ccRepo (grant-hill.group.shef.ac.uk/ccrepo) Feb. 2017
              B. P. Prascher, D. E. Woon, K. A. Peterson, T. H. Dunning, Jr., A. K. Wilson, Theor. Chem. Acc. 128, 69 (2011)
         Mg : Obtained from the Peterson Research Group Website (tyr0.chem.wsu.edu/~kipeters) Feb. 2017
              B. P. Prascher, D. E. Woon, K. A. Peterson, T. H. Dunning, Jr., A. K. Wilson, Theor. Chem. Acc. 128, 69 (2011)
      Al-Ar : Obtained from the ccRepo (grant-hill.group.shef.ac.uk/ccrepo) Feb. 2017
              D. E. Woon, T. H. Dunning, Jr., J. Chem. Phys. 98, 1358 (1993)
      Sc-Zn : Obtained from the ccRepo (grant-hill.group.shef.ac.uk/ccrepo) Feb. 2017
              N. B. Balabanov, K. A. Peterson, J. Chem. Phys. 123, 064107 (2005)
              N. B. Balabanov, K. A. Peterson, J. Chem. Phys. 125, 074110 (2006)
      Ga-Kr : Obtained from the ccRepo (grant-hill.group.shef.ac.uk/ccrepo) Feb. 2017
              A. K. Wilson, D. E. Woon, K. A. Peterson, T. H. Dunning, Jr., J. Chem. Phys. 110, 7667 (1999)
     Ag, Au : Obtained from the Peterson Research Group Website (tyr0.chem.wsu.edu/~kipeters) Feb. 2017
              K. A. Peterson, C. Puzzarini, Theor. Chem. Acc. 114, 283 (2005)

----- AuxC basis set information -----
Your calculation utilizes the auxiliary basis: aug-cc-pVTZ/C 
  H-He, B-F, Al-Ar, Ga-Kr : Obtained from the EMSL Basis Set Exchange (bse.pnl.gov) Feb. 2017
                            F. Weigend, A. Kohn, C. Hattig, J. Chem. Phys. 116, 3175 (2002)
                   Be, Mg : Obtained from the TURBOMOLE 7.0 basis set library
                            C. Haettig, Phys. Chem. Chem. Phys. 7, 59 (2005)
                       Ne : Obtained from the EMSL Basis Set Exchange (bse.pnl.gov) Feb. 2017
                            C. Haettig, Phys. Chem. Chem. Phys. 7, 59 (2005)
                            F. Weigend, A. Kohn, C. Hattig, J. Chem. Phys. 116, 3175 (2002)
                    Sc-Zn : Obtained from the EMSL Basis Set Exchange (bse.pnl.gov) Feb. 2017
                            J. G. Hill, J. A. Platts, J. Chem. Phys. 128, 044104 (2008)

================================================================================
                                        WARNINGS
                       Please study these warnings very carefully!
================================================================================


WARNING: Post HF methods need fully converged wavefunctions
  ===> : Setting SCFConvForced true
         You can overwrite this default with %scf ConvForced false 


WARNING: MDCI localization with Augmented Hessian Foster-Boys
  ===> : Switching off randomization!

INFO   : the flag for use of the SHARK integral package has been found!

================================================================================

----- Orbital basis set information -----
Your calculation utilizes the basis: aug-cc-pVTZ 
    H, B-Ne : Obtained from the ccRepo (grant-hill.group.shef.ac.uk/ccrepo) Feb. 2017
              R. A. Kendall, T. H. Dunning, Jr., R. J. Harrison, J. Chem. Phys. 96, 6796 (1992)
         He : Obtained from the ccRepo (grant-hill.group.shef.ac.uk/ccrepo) Feb. 2017
              D. E. Woon, T. H. Dunning, Jr., J. Chem. Phys. 100, 2975 (1994)
  Li-Be, Na : Obtained from the ccRepo (grant-hill.group.shef.ac.uk/ccrepo) Feb. 2017
              B. P. Prascher, D. E. Woon, K. A. Peterson, T. H. Dunning, Jr., A. K. Wilson, Theor. Chem. Acc. 128, 69 (2011)
         Mg : Obtained from the Peterson Research Group Website (tyr0.chem.wsu.edu/~kipeters) Feb. 2017
              B. P. Prascher, D. E. Woon, K. A. Peterson, T. H. Dunning, Jr., A. K. Wilson, Theor. Chem. Acc. 128, 69 (2011)
      Al-Ar : Obtained from the ccRepo (grant-hill.group.shef.ac.uk/ccrepo) Feb. 2017
              D. E. Woon, T. H. Dunning, Jr., J. Chem. Phys. 98, 1358 (1993)
      Sc-Zn : Obtained from the ccRepo (grant-hill.group.shef.ac.uk/ccrepo) Feb. 2017
              N. B. Balabanov, K. A. Peterson, J. Chem. Phys. 123, 064107 (2005)
              N. B. Balabanov, K. A. Peterson, J. Chem. Phys. 125, 074110 (2006)
      Ga-Kr : Obtained from the ccRepo (grant-hill.group.shef.ac.uk/ccrepo) Feb. 2017
              A. K. Wilson, D. E. Woon, K. A. Peterson, T. H. Dunning, Jr., J. Chem. Phys. 110, 7667 (1999)
     Ag, Au : Obtained from the Peterson Research Group Website (tyr0.chem.wsu.edu/~kipeters) Feb. 2017
              K. A. Peterson, C. Puzzarini, Theor. Chem. Acc. 114, 283 (2005)

----- AuxC basis set information -----
Your calculation utilizes the auxiliary basis: aug-cc-pVTZ/C 
  H-He, B-F, Al-Ar, Ga-Kr : Obtained from the EMSL Basis Set Exchange (bse.pnl.gov) Feb. 2017
                            F. Weigend, A. Kohn, C. Hattig, J. Chem. Phys. 116, 3175 (2002)
                   Be, Mg : Obtained from the TURBOMOLE 7.0 basis set library
                            C. Haettig, Phys. Chem. Chem. Phys. 7, 59 (2005)
                       Ne : Obtained from the EMSL Basis Set Exchange (bse.pnl.gov) Feb. 2017
                            C. Haettig, Phys. Chem. Chem. Phys. 7, 59 (2005)
                            F. Weigend, A. Kohn, C. Hattig, J. Chem. Phys. 116, 3175 (2002)
                    Sc-Zn : Obtained from the EMSL Basis Set Exchange (bse.pnl.gov) Feb. 2017
                            J. G. Hill, J. A. Platts, J. Chem. Phys. 128, 044104 (2008)

================================================================================
                                        WARNINGS
                       Please study these warnings very carefully!
================================================================================


WARNING: MOInp is set but Guess=PModel. MOInp will be ignored!
         To read the initial guess from a file you must also specify
         'MORead' in the simple input or 'Guess MORead' in the %scf block


WARNING: MDCI localization with Augmented Hessian Foster-Boys
  ===> : Switching off randomization!

INFO   : the flag for use of the SHARK integral package has been found!

================================================================================

----- Orbital basis set information -----
Your calculation utilizes the basis: aug-cc-pVTZ 
    H, B-Ne : Obtained from the ccRepo (grant-hill.group.shef.ac.uk/ccrepo) Feb. 2017
              R. A. Kendall, T. H. Dunning, Jr., R. J. Harrison, J. Chem. Phys. 96, 6796 (1992)
         He : Obtained from the ccRepo (grant-hill.group.shef.ac.uk/ccrepo) Feb. 2017
              D. E. Woon, T. H. Dunning, Jr., J. Chem. Phys. 100, 2975 (1994)
  Li-Be, Na : Obtained from the ccRepo (grant-hill.group.shef.ac.uk/ccrepo) Feb. 2017
              B. P. Prascher, D. E. Woon, K. A. Peterson, T. H. Dunning, Jr., A. K. Wilson, Theor. Chem. Acc. 128, 69 (2011)
         Mg : Obtained from the Peterson Research Group Website (tyr0.chem.wsu.edu/~kipeters) Feb. 2017
              B. P. Prascher, D. E. Woon, K. A. Peterson, T. H. Dunning, Jr., A. K. Wilson, Theor. Chem. Acc. 128, 69 (2011)
      Al-Ar : Obtained from the ccRepo (grant-hill.group.shef.ac.uk/ccrepo) Feb. 2017
              D. E. Woon, T. H. Dunning, Jr., J. Chem. Phys. 98, 1358 (1993)
      Sc-Zn : Obtained from the ccRepo (grant-hill.group.shef.ac.uk/ccrepo) Feb. 2017
              N. B. Balabanov, K. A. Peterson, J. Chem. Phys. 123, 064107 (2005)
              N. B. Balabanov, K. A. Peterson, J. Chem. Phys. 125, 074110 (2006)
      Ga-Kr : Obtained from the ccRepo (grant-hill.group.shef.ac.uk/ccrepo) Feb. 2017
              A. K. Wilson, D. E. Woon, K. A. Peterson, T. H. Dunning, Jr., J. Chem. Phys. 110, 7667 (1999)
     Ag, Au : Obtained from the Peterson Research Group Website (tyr0.chem.wsu.edu/~kipeters) Feb. 2017
              K. A. Peterson, C. Puzzarini, Theor. Chem. Acc. 114, 283 (2005)

----- AuxC basis set information -----
Your calculation utilizes the auxiliary basis: aug-cc-pVTZ/C 
  H-He, B-F, Al-Ar, Ga-Kr : Obtained from the EMSL Basis Set Exchange (bse.pnl.gov) Feb. 2017
                            F. Weigend, A. Kohn, C. Hattig, J. Chem. Phys. 116, 3175 (2002)
                   Be, Mg : Obtained from the TURBOMOLE 7.0 basis set library
                            C. Haettig, Phys. Chem. Chem. Phys. 7, 59 (2005)
                       Ne : Obtained from the EMSL Basis Set Exchange (bse.pnl.gov) Feb. 2017
                            C. Haettig, Phys. Chem. Chem. Phys. 7, 59 (2005)
                            F. Weigend, A. Kohn, C. Hattig, J. Chem. Phys. 116, 3175 (2002)
                    Sc-Zn : Obtained from the EMSL Basis Set Exchange (bse.pnl.gov) Feb. 2017
                            J. G. Hill, J. A. Platts, J. Chem. Phys. 128, 044104 (2008)

================================================================================
                                        WARNINGS
                       Please study these warnings very carefully!
================================================================================


WARNING: MOInp is set but Guess=PModel. MOInp will be ignored!
         To read the initial guess from a file you must also specify
         'MORead' in the simple input or 'Guess MORead' in the %scf block


WARNING: MDCI localization with Augmented Hessian Foster-Boys
  ===> : Switching off randomization!

INFO   : the flag for use of the SHARK integral package has been found!

================================================================================

----- Orbital basis set information -----
Your calculation utilizes the basis: aug-cc-pVTZ 
    H, B-Ne : Obtained from the ccRepo (grant-hill.group.shef.ac.uk/ccrepo) Feb. 2017
              R. A. Kendall, T. H. Dunning, Jr., R. J. Harrison, J. Chem. Phys. 96, 6796 (1992)
         He : Obtained from the ccRepo (grant-hill.group.shef.ac.uk/ccrepo) Feb. 2017
              D. E. Woon, T. H. Dunning, Jr., J. Chem. Phys. 100, 2975 (1994)
  Li-Be, Na : Obtained from the ccRepo (grant-hill.group.shef.ac.uk/ccrepo) Feb. 2017
              B. P. Prascher, D. E. Woon, K. A. Peterson, T. H. Dunning, Jr., A. K. Wilson, Theor. Chem. Acc. 128, 69 (2011)
         Mg : Obtained from the Peterson Research Group Website (tyr0.chem.wsu.edu/~kipeters) Feb. 2017
              B. P. Prascher, D. E. Woon, K. A. Peterson, T. H. Dunning, Jr., A. K. Wilson, Theor. Chem. Acc. 128, 69 (2011)
      Al-Ar : Obtained from the ccRepo (grant-hill.group.shef.ac.uk/ccrepo) Feb. 2017
              D. E. Woon, T. H. Dunning, Jr., J. Chem. Phys. 98, 1358 (1993)
      Sc-Zn : Obtained from the ccRepo (grant-hill.group.shef.ac.uk/ccrepo) Feb. 2017
              N. B. Balabanov, K. A. Peterson, J. Chem. Phys. 123, 064107 (2005)
              N. B. Balabanov, K. A. Peterson, J. Chem. Phys. 125, 074110 (2006)
      Ga-Kr : Obtained from the ccRepo (grant-hill.group.shef.ac.uk/ccrepo) Feb. 2017
              A. K. Wilson, D. E. Woon, K. A. Peterson, T. H. Dunning, Jr., J. Chem. Phys. 110, 7667 (1999)
     Ag, Au : Obtained from the Peterson Research Group Website (tyr0.chem.wsu.edu/~kipeters) Feb. 2017
              K. A. Peterson, C. Puzzarini, Theor. Chem. Acc. 114, 283 (2005)

----- AuxC basis set information -----
Your calculation utilizes the auxiliary basis: aug-cc-pVTZ/C 
  H-He, B-F, Al-Ar, Ga-Kr : Obtained from the EMSL Basis Set Exchange (bse.pnl.gov) Feb. 2017
                            F. Weigend, A. Kohn, C. Hattig, J. Chem. Phys. 116, 3175 (2002)
                   Be, Mg : Obtained from the TURBOMOLE 7.0 basis set library
                            C. Haettig, Phys. Chem. Chem. Phys. 7, 59 (2005)
                       Ne : Obtained from the EMSL Basis Set Exchange (bse.pnl.gov) Feb. 2017
                            C. Haettig, Phys. Chem. Chem. Phys. 7, 59 (2005)
                            F. Weigend, A. Kohn, C. Hattig, J. Chem. Phys. 116, 3175 (2002)
                    Sc-Zn : Obtained from the EMSL Basis Set Exchange (bse.pnl.gov) Feb. 2017
                            J. G. Hill, J. A. Platts, J. Chem. Phys. 128, 044104 (2008)

================================================================================
                                        WARNINGS
                       Please study these warnings very carefully!
================================================================================


WARNING: MOInp is set but Guess=PModel. MOInp will be ignored!
         To read the initial guess from a file you must also specify
         'MORead' in the simple input or 'Guess MORead' in the %scf block


WARNING: MDCI localization with Augmented Hessian Foster-Boys
  ===> : Switching off randomization!

INFO   : the flag for use of the SHARK integral package has been found!

================================================================================

----- Orbital basis set information -----
Your calculation utilizes the basis: aug-cc-pVTZ 
    H, B-Ne : Obtained from the ccRepo (grant-hill.group.shef.ac.uk/ccrepo) Feb. 2017
              R. A. Kendall, T. H. Dunning, Jr., R. J. Harrison, J. Chem. Phys. 96, 6796 (1992)
         He : Obtained from the ccRepo (grant-hill.group.shef.ac.uk/ccrepo) Feb. 2017
              D. E. Woon, T. H. Dunning, Jr., J. Chem. Phys. 100, 2975 (1994)
  Li-Be, Na : Obtained from the ccRepo (grant-hill.group.shef.ac.uk/ccrepo) Feb. 2017
              B. P. Prascher, D. E. Woon, K. A. Peterson, T. H. Dunning, Jr., A. K. Wilson, Theor. Chem. Acc. 128, 69 (2011)
         Mg : Obtained from the Peterson Research Group Website (tyr0.chem.wsu.edu/~kipeters) Feb. 2017
              B. P. Prascher, D. E. Woon, K. A. Peterson, T. H. Dunning, Jr., A. K. Wilson, Theor. Chem. Acc. 128, 69 (2011)
      Al-Ar : Obtained from the ccRepo (grant-hill.group.shef.ac.uk/ccrepo) Feb. 2017
              D. E. Woon, T. H. Dunning, Jr., J. Chem. Phys. 98, 1358 (1993)
      Sc-Zn : Obtained from the ccRepo (grant-hill.group.shef.ac.uk/ccrepo) Feb. 2017
              N. B. Balabanov, K. A. Peterson, J. Chem. Phys. 123, 064107 (2005)
              N. B. Balabanov, K. A. Peterson, J. Chem. Phys. 125, 074110 (2006)
      Ga-Kr : Obtained from the ccRepo (grant-hill.group.shef.ac.uk/ccrepo) Feb. 2017
              A. K. Wilson, D. E. Woon, K. A. Peterson, T. H. Dunning, Jr., J. Chem. Phys. 110, 7667 (1999)
     Ag, Au : Obtained from the Peterson Research Group Website (tyr0.chem.wsu.edu/~kipeters) Feb. 2017
              K. A. Peterson, C. Puzzarini, Theor. Chem. Acc. 114, 283 (2005)

----- AuxC basis set information -----
Your calculation utilizes the auxiliary basis: aug-cc-pVTZ/C 
  H-He, B-F, Al-Ar, Ga-Kr : Obtained from the EMSL Basis Set Exchange (bse.pnl.gov) Feb. 2017
                            F. Weigend, A. Kohn, C. Hattig, J. Chem. Phys. 116, 3175 (2002)
                   Be, Mg : Obtained from the TURBOMOLE 7.0 basis set library
                            C. Haettig, Phys. Chem. Chem. Phys. 7, 59 (2005)
                       Ne : Obtained from the EMSL Basis Set Exchange (bse.pnl.gov) Feb. 2017
                            C. Haettig, Phys. Chem. Chem. Phys. 7, 59 (2005)
                            F. Weigend, A. Kohn, C. Hattig, J. Chem. Phys. 116, 3175 (2002)
                    Sc-Zn : Obtained from the EMSL Basis Set Exchange (bse.pnl.gov) Feb. 2017
                            J. G. Hill, J. A. Platts, J. Chem. Phys. 128, 044104 (2008)

================================================================================
                                        WARNINGS
                       Please study these warnings very carefully!
================================================================================


WARNING: MOInp is set but Guess=PModel. MOInp will be ignored!
         To read the initial guess from a file you must also specify
         'MORead' in the simple input or 'Guess MORead' in the %scf block


WARNING: MDCI localization with Augmented Hessian Foster-Boys
  ===> : Switching off randomization!

INFO   : the flag for use of the SHARK integral package has been found!

================================================================================
                                       INPUT FILE
================================================================================
NAME = CP.inp
|  1> #------------------------------------------------------
|  2> # After the Orca calculation you will get two inter-
|  3> # action energies at the end of the output file. The
|  4> # difference is the negative BSSE.
|  5> #
|  6> # The script will set the orbital guess PModel for 
|  7> # jobs 2-5 since Orca will try to use the .gbw-files of
|  8> # the earlier calculations which does not work for jobs
|  9> # 2 and 3 and does not help for jobs 4 and 5.
| 10> #------------------------------------------------------
| 11> #
| 12> #-------------------------
| 13> #     First the dimer
| 14> #-------------------------
| 15> 
| 16> %id "dimer"
| 17> ! DLPNO-CCSD(T) aug-cc-pVTZ aug-cc-pVTZ/C TightPNO
| 18> %maxcore 2000
| 19> %pal
| 20> nprocs 24
| 21> end
| 22> 
| 23> * xyz 0 1
| 24> H     1.949787    -3.682083     4.133091 
| 25> O     1.777261    -4.137274     4.986214 
| 26> H     2.353667    -3.666162     5.611390 
| 27> H     4.385483    -2.524424     5.618700 
| 28> O     4.112587    -3.186434     6.295074 
| 29> H     4.491239    -4.035007     5.958003 
| 30> H     4.965008    -2.151161     3.559849 
| 31> O     4.967531    -1.486181     4.280155 
| 32> H     4.170765    -0.913959     4.117225 
| 33> H     2.044189    -0.824010     5.279337 
| 34> O     1.497809    -1.375590     5.866505 
| 35> H     1.497512    -0.951838     6.742220 
| 36> H     5.715844    -5.452747     4.594842 
| 37> O     5.184847    -5.512574     5.423870 
| 38> H     4.406015    -6.041099     5.184590 
| 39> H     4.655797    -0.352761     7.575577 
| 40> O     4.244265     0.295077     6.982695 
| 41> H     4.993621     0.760250     6.572560 
| 42> H     7.070080    -2.549325     6.704825 
| 43> O     7.337563    -3.151538     5.995593 
| 44> H     6.666500    -3.842216     6.014070 
| 45> O     5.605254    -1.946656     8.091996 
| 46> H     4.972111    -2.506624     7.564340 
| 47> H     5.548538    -2.263240     8.997549 
| 48> *
| 49> 
| 50> #--------------------------
| 51> #   Now the fragments at
| 52> #      dimer-geometry 
| 53> #-------------------------
| 54> 
| 55> $new_job
| 56> %id "fragment"
| 57> %scf guess PModel end
| 58> ! DLPNO-CCSD(T) aug-cc-pVTZ aug-cc-pVTZ/C TightPNO
| 59> %maxcore 2000
| 60> %pal
| 61> nprocs 24
| 62> end
| 63> 
| 64> * xyz 0 1
| 65> H     1.949787    -3.682083     4.133091 
| 66> O     1.777261    -4.137274     4.986214 
| 67> H     2.353667    -3.666162     5.611390 
| 68> H     4.385483    -2.524424     5.618700 
| 69> O     4.112587    -3.186434     6.295074 
| 70> H     4.491239    -4.035007     5.958003 
| 71> H     4.965008    -2.151161     3.559849 
| 72> O     4.967531    -1.486181     4.280155 
| 73> H     4.170765    -0.913959     4.117225 
| 74> H     2.044189    -0.824010     5.279337 
| 75> O     1.497809    -1.375590     5.866505 
| 76> H     1.497512    -0.951838     6.742220 
| 77> H     5.715844    -5.452747     4.594842 
| 78> O     5.184847    -5.512574     5.423870 
| 79> H     4.406015    -6.041099     5.184590 
| 80> H     4.655797    -0.352761     7.575577 
| 81> O     4.244265     0.295077     6.982695 
| 82> H     4.993621     0.760250     6.572560 
| 83> H     7.070080    -2.549325     6.704825 
| 84> O     7.337563    -3.151538     5.995593 
| 85> H     6.666500    -3.842216     6.014070 
| 86> *
| 87> 
| 88> $new_job
| 89> %id "fragment"
| 90> %scf guess PModel end
| 91> ! DLPNO-CCSD(T) aug-cc-pVTZ aug-cc-pVTZ/C TightPNO
| 92> %maxcore 2000
| 93> %pal
| 94> nprocs 6
| 95> end
| 96> 
| 97> * xyz 0 1
| 98> O     5.605254    -1.946656     8.091996 
| 99> H     4.972111    -2.506624     7.564340 
|100> H     5.548538    -2.263240     8.997549 
|101> *
|102> 
|103> #--------------------------
|104> #   Now the fragments at
|105> #   dimer-geometry with  
|106> #     the dimer-basis
|107> #-------------------------
|108> 
|109> $new_job
|110> %id "ghost"
|111> %scf guess PModel end
|112> ! DLPNO-CCSD(T) aug-cc-pVTZ aug-cc-pVTZ/C TightPNO
|113> %maxcore 2000
|114> %pal
|115> nprocs 24
|116> end
|117> 
|118> * xyz 0 1
|119> H          1.949787    -3.682083     4.133091 
|120> O          1.777261    -4.137274     4.986214 
|121> H          2.353667    -3.666162     5.611390 
|122> H          4.385483    -2.524424     5.618700 
|123> O          4.112587    -3.186434     6.295074 
|124> H          4.491239    -4.035007     5.958003 
|125> H          4.965008    -2.151161     3.559849 
|126> O          4.967531    -1.486181     4.280155 
|127> H          4.170765    -0.913959     4.117225 
|128> H          2.044189    -0.824010     5.279337 
|129> O          1.497809    -1.375590     5.866505 
|130> H          1.497512    -0.951838     6.742220 
|131> H          5.715844    -5.452747     4.594842 
|132> O          5.184847    -5.512574     5.423870 
|133> H          4.406015    -6.041099     5.184590 
|134> H          4.655797    -0.352761     7.575577 
|135> O          4.244265     0.295077     6.982695 
|136> H          4.993621     0.760250     6.572560 
|137> H          7.070080    -2.549325     6.704825 
|138> O          7.337563    -3.151538     5.995593 
|139> H          6.666500    -3.842216     6.014070 
|140> O :        5.605254    -1.946656     8.091996 
|141> H :        4.972111    -2.506624     7.564340 
|142> H :        5.548538    -2.263240     8.997549 
|143> *
|144> 
|145> $new_job
|146> %id "ghost"
|147> %scf guess PModel end
|148> ! DLPNO-CCSD(T) aug-cc-pVTZ aug-cc-pVTZ/C TightPNO
|149> %maxcore 2000
|150> %pal
|151> nprocs 6
|152> end
|153> 
|154> * xyz 0 1
|155> H :        1.949787    -3.682083     4.133091 
|156> O :        1.777261    -4.137274     4.986214 
|157> H :        2.353667    -3.666162     5.611390 
|158> H :        4.385483    -2.524424     5.618700 
|159> O :        4.112587    -3.186434     6.295074 
|160> H :        4.491239    -4.035007     5.958003 
|161> H :        4.965008    -2.151161     3.559849 
|162> O :        4.967531    -1.486181     4.280155 
|163> H :        4.170765    -0.913959     4.117225 
|164> H :        2.044189    -0.824010     5.279337 
|165> O :        1.497809    -1.375590     5.866505 
|166> H :        1.497512    -0.951838     6.742220 
|167> H :        5.715844    -5.452747     4.594842 
|168> O :        5.184847    -5.512574     5.423870 
|169> H :        4.406015    -6.041099     5.184590 
|170> H :        4.655797    -0.352761     7.575577 
|171> O :        4.244265     0.295077     6.982695 
|172> H :        4.993621     0.760250     6.572560 
|173> H :        7.070080    -2.549325     6.704825 
|174> O :        7.337563    -3.151538     5.995593 
|175> H :        6.666500    -3.842216     6.014070 
|176> O          5.605254    -1.946656     8.091996 
|177> H          4.972111    -2.506624     7.564340 
|178> H          5.548538    -2.263240     8.997549 
|179> *
|180> 
|181> 
|182>                          ****END OF INPUT****
================================================================================


                 $$$$$$$$$$$$$$$$$$$$$$$$$$$$$$$$$$$$$$$$$$$$$$ 
                 $ THERE ARE  5 JOBS TO BE PROCESSED THIS RUN $
                 $$$$$$$$$$$$$$$$$$$$$$$$$$$$$$$$$$$$$$$$$$$$$$ 




                 $$$$$$$$$$$$$$$$  JOB NUMBER  1 $$$$$$$$$$$$$$


                       ****************************
                       * Single Point Calculation *
                       ****************************

---------------------------------
CARTESIAN COORDINATES (ANGSTROEM)
---------------------------------
  H      1.949787   -3.682083    4.133091
  O      1.777261   -4.137274    4.986214
  H      2.353667   -3.666162    5.611390
  H      4.385483   -2.524424    5.618700
  O      4.112587   -3.186434    6.295074
  H      4.491239   -4.035007    5.958003
  H      4.965008   -2.151161    3.559849
  O      4.967531   -1.486181    4.280155
  H      4.170765   -0.913959    4.117225
  H      2.044189   -0.824010    5.279337
  O      1.497809   -1.375590    5.866505
  H      1.497512   -0.951838    6.742220
  H      5.715844   -5.452747    4.594842
  O      5.184847   -5.512574    5.423870
  H      4.406015   -6.041099    5.184590
  H      4.655797   -0.352761    7.575577
  O      4.244265    0.295077    6.982695
  H      4.993621    0.760250    6.572560
  H      7.070080   -2.549325    6.704825
  O      7.337563   -3.151538    5.995593
  H      6.666500   -3.842216    6.014070
  O      5.605254   -1.946656    8.091996
  H      4.972111   -2.506624    7.564340
  H      5.548538   -2.263240    8.997549

----------------------------
CARTESIAN COORDINATES (A.U.)
----------------------------
  NO LB      ZA    FRAG     MASS         X           Y           Z
   0 H     1.0000    0     1.008    3.684563   -6.958128    7.810410
   1 O     8.0000    0    15.999    3.358537   -7.818315    9.422579
   2 H     1.0000    0     1.008    4.447786   -6.928042   10.603990
   3 H     1.0000    0     1.008    8.287362   -4.770470   10.617804
   4 O     8.0000    0    15.999    7.771663   -6.021488   11.895966
   5 H     1.0000    0     1.008    8.487212   -7.625058   11.258994
   6 H     1.0000    0     1.008    9.382505   -4.065105    6.727140
   7 O     8.0000    0    15.999    9.387273   -2.808475    8.088321
   8 H     1.0000    0     1.008    7.881604   -1.727132    7.780428
   9 H     1.0000    0     1.008    3.862957   -1.557153    9.976501
  10 O     8.0000    0    15.999    2.830449   -2.599488   11.086088
  11 H     1.0000    0     1.008    2.829888   -1.798713   12.740949
  12 H     1.0000    0     1.008   10.801380  -10.304199    8.682993
  13 O     8.0000    0    15.999    9.797941  -10.417255   10.249629
  14 H     1.0000    0     1.008    8.326162  -11.416023    9.797455
  15 H     1.0000    0     1.008    8.798181   -0.666622   14.315766
  16 O     8.0000    0    15.999    8.020498    0.557615   13.195381
  17 H     1.0000    0     1.008    9.436576    1.436664   12.420338
  18 H     1.0000    0     1.008   13.360515   -4.817526   12.670283
  19 O     8.0000    0    15.999   13.865985   -5.955544   11.330029
  20 H     1.0000    0     1.008   12.597859   -7.260736   11.364945
  21 O     8.0000    0    15.999   10.592395   -3.678647   15.291656
  22 H     1.0000    0     1.008    9.395928   -4.736833   14.294531
  23 H     1.0000    0     1.008   10.485217   -4.276904   17.002903

--------------------------------
INTERNAL COORDINATES (ANGSTROEM)
--------------------------------
 H      0   0   0     0.000000000000     0.00000000     0.00000000
 O      1   0   0     0.982233638340     0.00000000     0.00000000
 H      2   1   0     0.972129324913   103.28743439     0.00000000
 H      3   2   1     2.330642691319   139.14175968   329.97815142
 O      4   3   2     0.984993022712    55.34564378   224.82385000
 H      5   4   3     0.988468680573   103.69099242    93.36556740
 H      4   3   2     2.171184453932   108.29671525    12.79611981
 O      7   4   3     0.980329281193    54.58869641   132.09725303
 H      8   7   4     0.994394419202   105.53863929   255.57139732
 H      9   8   7     2.425060949115   130.20035401   105.94008253
 O     10   9   8     0.973415564404   139.48696643   339.87423584
 H     11  10   9     0.972852818744   107.23726930   111.01493353
 H      6   5   4     2.316862539200   158.19116995     6.06765658
 O     13   6   5     0.986318664896    42.09984897   174.92251805
 H     14  13   6     0.971170880046   104.93121780   112.24926634
 H      4   3   2     2.935737971498   116.40691731   149.60182312
 O     16   4   3     0.969825616898    92.72672408   274.21567914
 H     17  16   4     0.972692681627   104.49626024   262.17090370
 H      4   3   2     2.896091957766   143.61831253   242.73937137
 O     19   4   3     0.968100037435    89.23905667    84.63376141
 H     20  19   4     0.963173426327   103.85775936   310.40777075
 O     16   4   3     1.925787747763    67.16348054   103.86461130
 H     22  16   4     0.996421132759    90.56423628   333.31080409
 H     22  16   4     0.960972616426   119.75300370   224.40696093

---------------------------
INTERNAL COORDINATES (A.U.)
---------------------------
 H      0   0   0     0.000000000000     0.00000000     0.00000000
 O      1   0   0     1.856152575987     0.00000000     0.00000000
 H      2   1   0     1.837058190840   103.28743439     0.00000000
 H      3   2   1     4.404276402619   139.14175968   329.97815142
 O      4   3   2     1.861367056750    55.34564378   224.82385000
 H      5   4   3     1.867935098242   103.69099242    93.36556740
 H      4   3   2     4.102944004158   108.29671525    12.79611981
 O      7   4   3     1.852553862519    54.58869641   132.09725303
 H      8   7   4     1.879133121391   105.53863929   255.57139732
 H      9   8   7     4.582701051894   130.20035401   105.94008253
 O     10   9   8     1.839488831220   139.48696643   339.87423584
 H     11  10   9     1.838425396039   107.23726930   111.01493353
 H      6   5   4     4.378235689028   158.19116995     6.06765658
 O     13   6   5     1.863872157428    42.09984897   174.92251805
 H     14  13   6     1.835246992526   104.93121780   112.24926634
 H      4   3   2     5.547740767084   116.40691731   149.60182312
 O     16   4   3     1.832704813599    92.72672408   274.21567914
 H     17  16   4     1.838122780744   104.49626024   262.17090370
 H      4   3   2     5.472820658829   143.61831253   242.73937137
 O     19   4   3     1.829443940991    89.23905667    84.63376141
 H     20  19   4     1.820133995228   103.85775936   310.40777075
 O     16   4   3     3.639211435334    67.16348054   103.86461130
 H     22  16   4     1.882963054966    90.56423628   333.31080409
 H     22  16   4     1.815975067243   119.75300370   224.40696093

---------------------
BASIS SET INFORMATION
---------------------
There are 2 groups of distinct atoms

 Group   1 Type H   : 6s3p2d contracted to 4s3p2d pattern {3111/111/11}
 Group   2 Type O   : 19s6p3d2f contracted to 5s4p3d2f pattern {88111/3111/111/11}

Atom   0H    basis set group =>   1
Atom   1O    basis set group =>   2
Atom   2H    basis set group =>   1
Atom   3H    basis set group =>   1
Atom   4O    basis set group =>   2
Atom   5H    basis set group =>   1
Atom   6H    basis set group =>   1
Atom   7O    basis set group =>   2
Atom   8H    basis set group =>   1
Atom   9H    basis set group =>   1
Atom  10O    basis set group =>   2
Atom  11H    basis set group =>   1
Atom  12H    basis set group =>   1
Atom  13O    basis set group =>   2
Atom  14H    basis set group =>   1
Atom  15H    basis set group =>   1
Atom  16O    basis set group =>   2
Atom  17H    basis set group =>   1
Atom  18H    basis set group =>   1
Atom  19O    basis set group =>   2
Atom  20H    basis set group =>   1
Atom  21O    basis set group =>   2
Atom  22H    basis set group =>   1
Atom  23H    basis set group =>   1
---------------------------------
AUXILIARY/C BASIS SET INFORMATION
---------------------------------
There are 2 groups of distinct atoms

 Group   1 Type H   : 5s4p3d2f contracted to 5s4p3d2f pattern {11111/1111/111/11}
 Group   2 Type O   : 9s7p6d4f2g contracted to 9s7p6d4f2g pattern {111111111/1111111/111111/1111/11}

Atom   0H    basis set group =>   1
Atom   1O    basis set group =>   2
Atom   2H    basis set group =>   1
Atom   3H    basis set group =>   1
Atom   4O    basis set group =>   2
Atom   5H    basis set group =>   1
Atom   6H    basis set group =>   1
Atom   7O    basis set group =>   2
Atom   8H    basis set group =>   1
Atom   9H    basis set group =>   1
Atom  10O    basis set group =>   2
Atom  11H    basis set group =>   1
Atom  12H    basis set group =>   1
Atom  13O    basis set group =>   2
Atom  14H    basis set group =>   1
Atom  15H    basis set group =>   1
Atom  16O    basis set group =>   2
Atom  17H    basis set group =>   1
Atom  18H    basis set group =>   1
Atom  19O    basis set group =>   2
Atom  20H    basis set group =>   1
Atom  21O    basis set group =>   2
Atom  22H    basis set group =>   1
Atom  23H    basis set group =>   1


           ************************************************************
           *        Program running with 24 parallel MPI-processes    *
           *              working on a common directory               *
           ************************************************************
------------------------------------------------------------------------------
                           ORCA GTO INTEGRAL CALCULATION
------------------------------------------------------------------------------
------------------------------------------------------------------------------
                   ___                                                        
                  /   \      - P O W E R E D   B Y -                         
                 /     \                                                     
                 |  |  |   _    _      __       _____    __    __             
                 |  |  |  | |  | |    /  \     |  _  \  |  |  /  |          
                  \  \/   | |  | |   /    \    | | | |  |  | /  /          
                 / \  \   | |__| |  /  /\  \   | |_| |  |  |/  /          
                |  |  |   |  __  | /  /__\  \  |    /   |      \           
                |  |  |   | |  | | |   __   |  |    \   |  |\   \          
                \     /   | |  | | |  |  |  |  | |\  \  |  | \   \       
                 \___/    |_|  |_| |__|  |__|  |_| \__\ |__|  \__/        
                                                                              
                      - O R C A' S   B I G   F R I E N D -                    
                                      &                                       
                       - I N T E G R A L  F E E D E R -                       
                                                                              
 v1 FN, 2020, v2 2021                                                         
------------------------------------------------------------------------------


Reading SHARK input file CP.SHARKINP.tmp ... ok
----------------------
SHARK INTEGRAL PACKAGE
----------------------

Number of atoms                             ...     24
Number of basis functions                   ...    736
Number of shells                            ...    256
Maximum angular momentum                    ...      3
Integral batch strategy                     ... SHARK/LIBINT Hybrid
RI-J (if used) integral strategy            ... SPLIT-RIJ (Revised 2003 algorithm where possible)
Printlevel                                  ...      1
Contraction scheme used                     ... SEGMENTED contraction
Coulomb Range Separation                    ... NOT USED
Exchange Range Separation                   ... NOT USED
Finite Nucleus Model                        ... NOT USED
Auxiliary Coulomb fitting basis             ... NOT available
Auxiliary J/K fitting basis                 ... NOT available
Auxiliary Correlation fitting basis         ... AVAILABLE
   # of basis functions in Aux-C            ...   1584
   # of shells in Aux-C                     ...    448
   Maximum angular momentum in Aux-C        ...      4
Auxiliary 'external' fitting basis          ... NOT available
Integral threshold                          ...     1.000000e-10
Primitive cut-off                           ...     1.000000e-11
Primitive pair pre-selection threshold      ...     1.000000e-11

Calculating pre-screening integrals         ... done (  0.8 sec) Dimension = 256
Organizing shell pair data                  ... done (  0.6 sec)
Shell pair information
Total number of shell pairs                 ...     32896
Shell pairs after pre-screening             ...     29253
Total number of primitive shell pairs       ...     87256
Primitive shell pairs kept                  ...     56384
          la=0 lb=0:   4955 shell pairs
          la=1 lb=0:   7477 shell pairs
          la=1 lb=1:   2876 shell pairs
          la=2 lb=0:   5209 shell pairs
          la=2 lb=1:   3954 shell pairs
          la=2 lb=2:   1400 shell pairs
          la=3 lb=0:   1435 shell pairs
          la=3 lb=1:   1087 shell pairs
          la=3 lb=2:    750 shell pairs
          la=3 lb=3:    110 shell pairs

Calculating one electron integrals          ... done (  0.3 sec)
Calculating RI/C V-Matrix + Cholesky decomp.... done (  1.3 sec)
Calculating Nuclear repulsion               ... done (  0.0 sec) ENN=    474.347274947198 Eh

SHARK setup successfully completed in   3.2 seconds

Maximum memory used throughout the entire GTOINT-calculation: 45.6 MB


           ************************************************************
           *        Program running with 24 parallel MPI-processes    *
           *              working on a common directory               *
           ************************************************************
-------------------------------------------------------------------------------
                                 ORCA SCF
-------------------------------------------------------------------------------

------------
SCF SETTINGS
------------
Hamiltonian:
 Ab initio Hamiltonian  Method          .... Hartree-Fock(GTOs)


General Settings:
 Integral files         IntName         .... CP
 Hartree-Fock type      HFTyp           .... RHF
 Total Charge           Charge          ....    0
 Multiplicity           Mult            ....    1
 Number of Electrons    NEL             ....   80
 Basis Dimension        Dim             ....  736
 Nuclear Repulsion      ENuc            ....    474.3472749472 Eh

Convergence Acceleration:
 DIIS                   CNVDIIS         .... on
   Start iteration      DIISMaxIt       ....    12
   Startup error        DIISStart       ....  0.200000
   # of expansion vecs  DIISMaxEq       ....     5
   Bias factor          DIISBfac        ....   1.050
   Max. coefficient     DIISMaxC        ....  10.000
 Trust-Rad. Augm. Hess. CNVTRAH         .... auto
   Auto Start mean grad. ratio tolernc. ....  1.125000
   Auto Start start iteration           ....    20
   Auto Start num. interpolation iter.  ....    10
   Max. Number of Micro iterations      ....    16
   Max. Number of Macro iterations      .... Maxiter - #DIIS iter
   Number of Davidson start vectors     ....     2
   Converg. threshold I  (grad. norm)   ....   5.000e-05
   Converg. threshold II (energy diff.) ....   1.000e-06
   Grad. Scal. Fac. for Micro threshold ....   0.100
   Minimum threshold for Micro iter.    ....   0.010
   NR start threshold (gradient norm)   ....   0.001
   Initial trust radius                 ....   0.400
   Minimum AH scaling param. (alpha)    ....   1.000
   Maximum AH scaling param. (alpha)    .... 1000.000
   Orbital update algorithm             .... Taylor
   White noise on init. David. guess    .... on
   Maximum white noise                  ....   0.010
   Quad. conv. algorithm                .... NR
 SOSCF                  CNVSOSCF        .... on
   Start iteration      SOSCFMaxIt      ....   150
   Startup grad/error   SOSCFStart      ....  0.003300
 Level Shifting         CNVShift        .... on
   Level shift para.    LevelShift      ....    0.2500
   Turn off err/grad.   ShiftErr        ....    0.0010
 Zerner damping         CNVZerner       .... off
 Static damping         CNVDamp         .... on
   Fraction old density DampFac         ....    0.7000
   Max. Damping (<1)    DampMax         ....    0.9800
   Min. Damping (>=0)   DampMin         ....    0.0000
   Turn off err/grad.   DampErr         ....    0.1000
 Fernandez-Rico         CNVRico         .... off

SCF Procedure:
 Maximum # iterations   MaxIter         ....   125
 SCF integral mode      SCFMode         .... Direct
   Integral package                     .... SHARK and LIBINT hybrid scheme
 Reset frequency        DirectResetFreq ....    20
 Integral Threshold     Thresh          ....  1.000e-10 Eh
 Primitive CutOff       TCut            ....  1.000e-11 Eh

Convergence Tolerance:
 Convergence Check Mode ConvCheckMode   .... Total+1el-Energy
 Convergence forced     ConvForced      .... 1
 Energy Change          TolE            ....  1.000e-06 Eh
 1-El. energy change                    ....  1.000e-03 Eh
 Orbital Gradient       TolG            ....  5.000e-05
 Orbital Rotation angle TolX            ....  5.000e-05
 DIIS Error             TolErr          ....  1.000e-06


Diagonalization of the overlap matrix:
Smallest eigenvalue                        ... 1.302e-05
Time for diagonalization                   ...    0.441 sec
Threshold for overlap eigenvalues          ... 1.000e-08
Number of eigenvalues below threshold      ... 0
Time for construction of square roots      ...    0.129 sec
Total time needed                          ...    0.575 sec

Time for model grid setup =    0.533 sec

------------------------------
INITIAL GUESS: MODEL POTENTIAL
------------------------------
Loading Hartree-Fock densities                     ... done
Calculating cut-offs                               ... done
Initializing the effective Hamiltonian             ... done
Setting up the integral package (SHARK)            ... done
Starting the Coulomb interaction                   ... done (   0.6 sec)
Reading the grid                                   ... done
Mapping shells                                     ... done
Starting the XC term evaluation                    ... done (   0.1 sec)
Transforming the Hamiltonian                       ... done (   0.1 sec)
Diagonalizing the Hamiltonian                      ... done (   0.2 sec)
Back transforming the eigenvectors                 ... done (   0.0 sec)
Now organizing SCF variables                       ... done
                      ------------------
                      INITIAL GUESS DONE (   1.7 sec)
                      ------------------
--------------
SCF ITERATIONS
--------------
ITER       Energy         Delta-E        Max-DP      RMS-DP      [F,P]     Damp
               ***  Starting incremental Fock matrix formation  ***
  0   -607.7800303331   0.000000000000 0.02677291  0.00039431  0.3811691 0.7000
  1   -608.0573120313  -0.277281698153 0.01769949  0.00028012  0.2248659 0.7000
                               ***Turning on DIIS***
  2   -608.2040540844  -0.146742053136 0.01237329  0.00016609  0.1213490 0.7000
  3   -609.3621923392  -1.158138254766 0.04885734  0.00035552  0.0847470 0.0000
  4   -608.2948078135   1.067384525629 0.00502885  0.00006296  0.0130855 0.0000
                      *** Initiating the SOSCF procedure ***
                           *** Shutting down DIIS ***
                      *** Re-Reading the Fockian *** 
                      *** Removing any level shift *** 
ITER      Energy       Delta-E        Grad      Rot      Max-DP    RMS-DP
  5   -608.47376810  -0.1789602909  0.000930  0.000930  0.003227  0.000031
               *** Restarting incremental Fock matrix formation ***
  6   -608.48871072  -0.0149426182  0.000338  0.000485  0.001386  0.000013
  7   -608.48876080  -0.0000500809  0.000146  0.000390  0.001601  0.000012
  8   -608.48877264  -0.0000118391  0.000077  0.000034  0.000396  0.000003
  9   -608.48877350  -0.0000008558  0.000013  0.000013  0.000031  0.000000
                 **** Energy Check signals convergence ****
              ***Rediagonalizing the Fockian in SOSCF/NRSCF***

               *****************************************************
               *                     SUCCESS                       *
               *           SCF CONVERGED AFTER  10 CYCLES          *
               *****************************************************


----------------
TOTAL SCF ENERGY
----------------

Total Energy       :         -608.48877352 Eh          -16557.82131 eV

Components:
Nuclear Repulsion  :          474.34727495 Eh           12907.64556 eV
Electronic Energy  :        -1082.83604846 Eh          -29465.46687 eV
One Electron Energy:        -1786.09818266 Eh          -48602.20244 eV
Two Electron Energy:          703.26213420 Eh           19136.73556 eV

Virial components:
Potential Energy   :        -1215.91458730 Eh          -33086.71802 eV
Kinetic Energy     :          607.42581378 Eh           16528.89671 eV
Virial Ratio       :            2.00174994


---------------
SCF CONVERGENCE
---------------

  Last Energy change         ...   -1.7627e-08  Tolerance :   1.0000e-06
  Last MAX-Density change    ...    3.6838e-05  Tolerance :   1.0000e-05
  Last RMS-Density change    ...    2.7232e-07  Tolerance :   1.0000e-06
  Last Orbital Gradient      ...    2.8820e-06  Tolerance :   5.0000e-05
  Last Orbital Rotation      ...    5.0472e-06  Tolerance :   5.0000e-05

             **** THE GBW FILE WAS UPDATED (CP.gbw) ****
             **** DENSITY CP.scfp WAS UPDATED ****
             **** ENERGY FILE WAS UPDATED (CP.en.tmp) ****
             **** THE GBW FILE WAS UPDATED (CP.gbw) ****
             **** DENSITY CP.scfp WAS UPDATED ****
----------------
ORBITAL ENERGIES
----------------

  NO   OCC          E(Eh)            E(eV) 
   0   2.0000     -20.620057      -561.1003 
   1   2.0000     -20.611380      -560.8642 
   2   2.0000     -20.559537      -559.4534 
   3   2.0000     -20.558025      -559.4123 
   4   2.0000     -20.556238      -559.3637 
   5   2.0000     -20.545949      -559.0837 
   6   2.0000     -20.539585      -558.9105 
   7   2.0000     -20.534247      -558.7653 
   8   2.0000      -1.400813       -38.1180 
   9   2.0000      -1.384258       -37.6676 
  10   2.0000      -1.357276       -36.9334 
  11   2.0000      -1.338311       -36.4173 
  12   2.0000      -1.333754       -36.2933 
  13   2.0000      -1.326192       -36.0875 
  14   2.0000      -1.323375       -36.0109 
  15   2.0000      -1.311049       -35.6755 
  16   2.0000      -0.761552       -20.7229 
  17   2.0000      -0.745202       -20.2780 
  18   2.0000      -0.737340       -20.0640 
  19   2.0000      -0.716832       -19.5060 
  20   2.0000      -0.704871       -19.1805 
  21   2.0000      -0.695179       -18.9168 
  22   2.0000      -0.689074       -18.7507 
  23   2.0000      -0.678074       -18.4513 
  24   2.0000      -0.646528       -17.5929 
  25   2.0000      -0.619433       -16.8556 
  26   2.0000      -0.609653       -16.5895 
  27   2.0000      -0.590816       -16.0769 
  28   2.0000      -0.574162       -15.6237 
  29   2.0000      -0.568816       -15.4783 
  30   2.0000      -0.565011       -15.3747 
  31   2.0000      -0.553228       -15.0541 
  32   2.0000      -0.548762       -14.9326 
  33   2.0000      -0.534763       -14.5516 
  34   2.0000      -0.503894       -13.7116 
  35   2.0000      -0.500428       -13.6173 
  36   2.0000      -0.498945       -13.5770 
  37   2.0000      -0.489513       -13.3203 
  38   2.0000      -0.483567       -13.1585 
  39   2.0000      -0.471122       -12.8199 
  40   0.0000       0.009513         0.2589 
  41   0.0000       0.027418         0.7461 
  42   0.0000       0.033384         0.9084 
  43   0.0000       0.044974         1.2238 
  44   0.0000       0.047384         1.2894 
  45   0.0000       0.055996         1.5237 
  46   0.0000       0.057689         1.5698 
  47   0.0000       0.061505         1.6736 
  48   0.0000       0.069508         1.8914 
  49   0.0000       0.076694         2.0870 
  50   0.0000       0.079456         2.1621 
  51   0.0000       0.083530         2.2730 
  52   0.0000       0.085868         2.3366 
  53   0.0000       0.091676         2.4946 
  54   0.0000       0.098964         2.6929 
  55   0.0000       0.105876         2.8810 
  56   0.0000       0.131372         3.5748 
  57   0.0000       0.146003         3.9730 
  58   0.0000       0.149080         4.0567 
  59   0.0000       0.153362         4.1732 
  60   0.0000       0.155994         4.2448 
  61   0.0000       0.164527         4.4770 
  62   0.0000       0.172888         4.7045 
  63   0.0000       0.174898         4.7592 
  64   0.0000       0.177757         4.8370 
  65   0.0000       0.183164         4.9842 
  66   0.0000       0.186063         5.0630 
  67   0.0000       0.195327         5.3151 
  68   0.0000       0.199412         5.4263 
  69   0.0000       0.203070         5.5258 
  70   0.0000       0.204975         5.5777 
  71   0.0000       0.210335         5.7235 
  72   0.0000       0.214242         5.8298 
  73   0.0000       0.217595         5.9211 
  74   0.0000       0.219396         5.9701 
  75   0.0000       0.223580         6.0839 
  76   0.0000       0.230685         6.2773 
  77   0.0000       0.233849         6.3633 
  78   0.0000       0.236378         6.4322 
  79   0.0000       0.241708         6.5772 
  80   0.0000       0.245812         6.6889 
  81   0.0000       0.253905         6.9091 
  82   0.0000       0.256115         6.9692 
  83   0.0000       0.258954         7.0465 
  84   0.0000       0.268255         7.2996 
  85   0.0000       0.274868         7.4795 
  86   0.0000       0.278983         7.5915 
  87   0.0000       0.282656         7.6915 
  88   0.0000       0.290183         7.8963 
  89   0.0000       0.300452         8.1757 
  90   0.0000       0.306864         8.3502 
  91   0.0000       0.317203         8.6315 
  92   0.0000       0.328422         8.9368 
  93   0.0000       0.331046         9.0082 
  94   0.0000       0.338451         9.2097 
  95   0.0000       0.350588         9.5400 
  96   0.0000       0.355231         9.6663 
  97   0.0000       0.356736         9.7073 
  98   0.0000       0.365249         9.9389 
  99   0.0000       0.368800        10.0356 
 100   0.0000       0.382106        10.3976 
 101   0.0000       0.383465        10.4346 
 102   0.0000       0.388836        10.5808 
 103   0.0000       0.396018        10.7762 
 104   0.0000       0.400472        10.8974 
 105   0.0000       0.401454        10.9241 
 106   0.0000       0.404957        11.0194 
 107   0.0000       0.413395        11.2490 
 108   0.0000       0.415436        11.3046 
 109   0.0000       0.417627        11.3642 
 110   0.0000       0.422594        11.4994 
 111   0.0000       0.428875        11.6703 
 112   0.0000       0.434872        11.8335 
 113   0.0000       0.439109        11.9488 
 114   0.0000       0.440452        11.9853 
 115   0.0000       0.445497        12.1226 
 116   0.0000       0.451821        12.2947 
 117   0.0000       0.454186        12.3590 
 118   0.0000       0.459088        12.4924 
 119   0.0000       0.463371        12.6090 
 120   0.0000       0.465701        12.6724 
 121   0.0000       0.468958        12.7610 
 122   0.0000       0.475302        12.9336 
 123   0.0000       0.480405        13.0725 
 124   0.0000       0.487944        13.2776 
 125   0.0000       0.488046        13.2804 
 126   0.0000       0.490542        13.3483 
 127   0.0000       0.490730        13.3534 
 128   0.0000       0.494123        13.4458 
 129   0.0000       0.495403        13.4806 
 130   0.0000       0.506281        13.7766 
 131   0.0000       0.512554        13.9473 
 132   0.0000       0.516608        14.0576 
 133   0.0000       0.517995        14.0954 
 134   0.0000       0.522873        14.2281 
 135   0.0000       0.527573        14.3560 
 136   0.0000       0.531004        14.4494 
 137   0.0000       0.542818        14.7708 
 138   0.0000       0.551829        15.0160 
 139   0.0000       0.552972        15.0471 
 140   0.0000       0.554038        15.0761 
 141   0.0000       0.571624        15.5547 
 142   0.0000       0.581199        15.8152 
 143   0.0000       0.589131        16.0311 
 144   0.0000       0.589855        16.0508 
 145   0.0000       0.591122        16.0853 
 146   0.0000       0.600002        16.3269 
 147   0.0000       0.615094        16.7375 
 148   0.0000       0.620914        16.8959 
 149   0.0000       0.633881        17.2488 
 150   0.0000       0.640817        17.4375 
 151   0.0000       0.646978        17.6052 
 152   0.0000       0.656480        17.8637 
 153   0.0000       0.663459        18.0536 
 154   0.0000       0.671971        18.2853 
 155   0.0000       0.676887        18.4190 
 156   0.0000       0.695358        18.9217 
 157   0.0000       0.703007        19.1298 
 158   0.0000       0.707221        19.2445 
 159   0.0000       0.716909        19.5081 
 160   0.0000       0.727055        19.7842 
 161   0.0000       0.731611        19.9081 
 162   0.0000       0.744489        20.2586 
 163   0.0000       0.746010        20.3000 
 164   0.0000       0.749688        20.4001 
 165   0.0000       0.763478        20.7753 
 166   0.0000       0.769959        20.9517 
 167   0.0000       0.782397        21.2901 
 168   0.0000       0.784538        21.3484 
 169   0.0000       0.790411        21.5082 
 170   0.0000       0.799052        21.7433 
 171   0.0000       0.804958        21.9040 
 172   0.0000       0.806062        21.9341 
 173   0.0000       0.823428        22.4066 
 174   0.0000       0.830291        22.5934 
 175   0.0000       0.834312        22.7028 
 176   0.0000       0.842475        22.9249 
 177   0.0000       0.845057        22.9952 
 178   0.0000       0.850751        23.1501 
 179   0.0000       0.854419        23.2499 
 180   0.0000       0.860111        23.4048 
 181   0.0000       0.870036        23.6749 
 182   0.0000       0.872581        23.7441 
 183   0.0000       0.883995        24.0547 
 184   0.0000       0.893103        24.3026 
 185   0.0000       0.897101        24.4113 
 186   0.0000       0.907444        24.6928 
 187   0.0000       0.908771        24.7289 
 188   0.0000       0.917083        24.9551 
 189   0.0000       0.922115        25.0920 
 190   0.0000       0.933290        25.3961 
 191   0.0000       0.935477        25.4556 
 192   0.0000       0.944679        25.7060 
 193   0.0000       0.946894        25.7663 
 194   0.0000       0.949868        25.8472 
 195   0.0000       0.955855        26.0101 
 196   0.0000       0.960689        26.1417 
 197   0.0000       0.960923        26.1481 
 198   0.0000       0.966266        26.2934 
 199   0.0000       0.969756        26.3884 
 200   0.0000       0.976253        26.5652 
 201   0.0000       0.980727        26.6869 
 202   0.0000       0.985967        26.8295 
 203   0.0000       0.997684        27.1484 
 204   0.0000       0.998180        27.1618 
 205   0.0000       1.009444        27.4684 
 206   0.0000       1.010544        27.4983 
 207   0.0000       1.018297        27.7093 
 208   0.0000       1.026154        27.9231 
 209   0.0000       1.027028        27.9469 
 210   0.0000       1.030359        28.0375 
 211   0.0000       1.035450        28.1760 
 212   0.0000       1.039957        28.2987 
 213   0.0000       1.051442        28.6112 
 214   0.0000       1.054808        28.7028 
 215   0.0000       1.061101        28.8740 
 216   0.0000       1.065695        28.9990 
 217   0.0000       1.067388        29.0451 
 218   0.0000       1.070660        29.1342 
 219   0.0000       1.076040        29.2805 
 220   0.0000       1.080461        29.4008 
 221   0.0000       1.088659        29.6239 
 222   0.0000       1.090026        29.6611 
 223   0.0000       1.101221        29.9658 
 224   0.0000       1.105461        30.0811 
 225   0.0000       1.113270        30.2936 
 226   0.0000       1.118930        30.4476 
 227   0.0000       1.120986        30.5036 
 228   0.0000       1.130430        30.7606 
 229   0.0000       1.135497        30.8984 
 230   0.0000       1.145881        31.1810 
 231   0.0000       1.149653        31.2836 
 232   0.0000       1.151866        31.3439 
 233   0.0000       1.153309        31.3831 
 234   0.0000       1.160765        31.5860 
 235   0.0000       1.164312        31.6826 
 236   0.0000       1.177195        32.0331 
 237   0.0000       1.187629        32.3170 
 238   0.0000       1.192547        32.4508 
 239   0.0000       1.197136        32.5757 
 240   0.0000       1.201067        32.6827 
 241   0.0000       1.204477        32.7755 
 242   0.0000       1.210204        32.9313 
 243   0.0000       1.212740        33.0003 
 244   0.0000       1.232287        33.5322 
 245   0.0000       1.233949        33.5775 
 246   0.0000       1.235186        33.6111 
 247   0.0000       1.248936        33.9853 
 248   0.0000       1.250684        34.0328 
 249   0.0000       1.255608        34.1668 
 250   0.0000       1.259887        34.2833 
 251   0.0000       1.266067        34.4514 
 252   0.0000       1.275284        34.7022 
 253   0.0000       1.286416        35.0052 
 254   0.0000       1.290047        35.1040 
 255   0.0000       1.294832        35.2342 
 256   0.0000       1.298130        35.3239 
 257   0.0000       1.310482        35.6600 
 258   0.0000       1.316012        35.8105 
 259   0.0000       1.325208        36.0607 
 260   0.0000       1.331336        36.2275 
 261   0.0000       1.333448        36.2850 
 262   0.0000       1.341585        36.5064 
 263   0.0000       1.348652        36.6987 
 264   0.0000       1.353500        36.8306 
 265   0.0000       1.361707        37.0539 
 266   0.0000       1.366554        37.1858 
 267   0.0000       1.373161        37.3656 
 268   0.0000       1.377238        37.4765 
 269   0.0000       1.385127        37.6912 
 270   0.0000       1.398152        38.0456 
 271   0.0000       1.399551        38.0837 
 272   0.0000       1.402818        38.1726 
 273   0.0000       1.406719        38.2788 
 274   0.0000       1.418217        38.5917 
 275   0.0000       1.421024        38.6680 
 276   0.0000       1.441885        39.2357 
 277   0.0000       1.455135        39.5962 
 278   0.0000       1.463679        39.8287 
 279   0.0000       1.478174        40.2231 
 280   0.0000       1.485100        40.4116 
 281   0.0000       1.493365        40.6365 
 282   0.0000       1.500109        40.8200 
 283   0.0000       1.505822        40.9755 
 284   0.0000       1.515106        41.2281 
 285   0.0000       1.520014        41.3617 
 286   0.0000       1.527802        41.5736 
 287   0.0000       1.535868        41.7931 
 288   0.0000       1.545508        42.0554 
 289   0.0000       1.555996        42.3408 
 290   0.0000       1.565876        42.6096 
 291   0.0000       1.573960        42.8296 
 292   0.0000       1.584605        43.1193 
 293   0.0000       1.589219        43.2448 
 294   0.0000       1.598612        43.5004 
 295   0.0000       1.609084        43.7854 
 296   0.0000       1.615120        43.9497 
 297   0.0000       1.619176        44.0600 
 298   0.0000       1.623928        44.1893 
 299   0.0000       1.643187        44.7134 
 300   0.0000       1.649253        44.8784 
 301   0.0000       1.659359        45.1535 
 302   0.0000       1.663860        45.2759 
 303   0.0000       1.668879        45.4125 
 304   0.0000       1.687248        45.9124 
 305   0.0000       1.688560        45.9481 
 306   0.0000       1.695292        46.1312 
 307   0.0000       1.697919        46.2027 
 308   0.0000       1.700024        46.2600 
 309   0.0000       1.722878        46.8819 
 310   0.0000       1.735041        47.2129 
 311   0.0000       1.746882        47.5351 
 312   0.0000       1.753222        47.7076 
 313   0.0000       1.759017        47.8653 
 314   0.0000       1.773607        48.2623 
 315   0.0000       1.780629        48.4534 
 316   0.0000       1.781536        48.4781 
 317   0.0000       1.804659        49.1073 
 318   0.0000       1.808843        49.2211 
 319   0.0000       1.813684        49.3529 
 320   0.0000       1.830579        49.8126 
 321   0.0000       1.833590        49.8945 
 322   0.0000       1.841787        50.1176 
 323   0.0000       1.858566        50.5742 
 324   0.0000       1.863765        50.7156 
 325   0.0000       1.868337        50.8400 
 326   0.0000       1.885681        51.3120 
 327   0.0000       1.891848        51.4798 
 328   0.0000       1.896353        51.6024 
 329   0.0000       1.903107        51.7862 
 330   0.0000       1.915787        52.1312 
 331   0.0000       1.936961        52.7074 
 332   0.0000       1.948747        53.0281 
 333   0.0000       1.952183        53.1216 
 334   0.0000       1.958715        53.2994 
 335   0.0000       1.969171        53.5839 
 336   0.0000       1.982648        53.9506 
 337   0.0000       2.000124        54.4261 
 338   0.0000       2.001140        54.4538 
 339   0.0000       2.020611        54.9836 
 340   0.0000       2.029305        55.2202 
 341   0.0000       2.046387        55.6850 
 342   0.0000       2.049596        55.7723 
 343   0.0000       2.065202        56.1970 
 344   0.0000       2.084210        56.7142 
 345   0.0000       2.086482        56.7761 
 346   0.0000       2.092437        56.9381 
 347   0.0000       2.113032        57.4985 
 348   0.0000       2.117829        57.6291 
 349   0.0000       2.127763        57.8994 
 350   0.0000       2.139424        58.2167 
 351   0.0000       2.158368        58.7322 
 352   0.0000       2.186492        59.4975 
 353   0.0000       2.203322        59.9554 
 354   0.0000       2.214731        60.2659 
 355   0.0000       2.240437        60.9654 
 356   0.0000       2.258580        61.4591 
 357   0.0000       2.275655        61.9237 
 358   0.0000       2.291469        62.3540 
 359   0.0000       2.311449        62.8977 
 360   0.0000       2.327918        63.3459 
 361   0.0000       2.355029        64.0836 
 362   0.0000       2.357364        64.1471 
 363   0.0000       2.370743        64.5112 
 364   0.0000       2.378127        64.7121 
 365   0.0000       2.396410        65.2096 
 366   0.0000       2.409804        65.5741 
 367   0.0000       2.416582        65.7585 
 368   0.0000       2.440482        66.4089 
 369   0.0000       2.441774        66.4440 
 370   0.0000       2.447383        66.5967 
 371   0.0000       2.449179        66.6455 
 372   0.0000       2.463922        67.0467 
 373   0.0000       2.493050        67.8393 
 374   0.0000       2.497074        67.9488 
 375   0.0000       2.507967        68.2452 
 376   0.0000       2.520750        68.5931 
 377   0.0000       2.530423        68.8563 
 378   0.0000       2.535333        68.9899 
 379   0.0000       2.542077        69.1734 
 380   0.0000       2.549031        69.3627 
 381   0.0000       2.560340        69.6704 
 382   0.0000       2.562163        69.7200 
 383   0.0000       2.564127        69.7734 
 384   0.0000       2.580680        70.2239 
 385   0.0000       2.585722        70.3611 
 386   0.0000       2.592249        70.5387 
 387   0.0000       2.606201        70.9183 
 388   0.0000       2.612515        71.0901 
 389   0.0000       2.618354        71.2490 
 390   0.0000       2.621400        71.3319 
 391   0.0000       2.629568        71.5542 
 392   0.0000       2.643127        71.9231 
 393   0.0000       2.654808        72.2410 
 394   0.0000       2.659826        72.3775 
 395   0.0000       2.673934        72.7615 
 396   0.0000       2.676564        72.8330 
 397   0.0000       2.683592        73.0243 
 398   0.0000       2.692556        73.2682 
 399   0.0000       2.706297        73.6421 
 400   0.0000       2.718409        73.9717 
 401   0.0000       2.723300        74.1048 
 402   0.0000       2.729886        74.2840 
 403   0.0000       2.733818        74.3910 
 404   0.0000       2.752064        74.8875 
 405   0.0000       2.753294        74.9209 
 406   0.0000       2.761068        75.1325 
 407   0.0000       2.769023        75.3489 
 408   0.0000       2.783630        75.7464 
 409   0.0000       2.793634        76.0187 
 410   0.0000       2.799557        76.1798 
 411   0.0000       2.808028        76.4103 
 412   0.0000       2.810996        76.4911 
 413   0.0000       2.822058        76.7921 
 414   0.0000       2.827127        76.9300 
 415   0.0000       2.837367        77.2087 
 416   0.0000       2.843502        77.3756 
 417   0.0000       2.850710        77.5718 
 418   0.0000       2.856833        77.7384 
 419   0.0000       2.863211        77.9119 
 420   0.0000       2.869683        78.0880 
 421   0.0000       2.880382        78.3792 
 422   0.0000       2.885824        78.5273 
 423   0.0000       2.893052        78.7239 
 424   0.0000       2.898935        78.8840 
 425   0.0000       2.913498        79.2803 
 426   0.0000       2.915103        79.3240 
 427   0.0000       2.921959        79.5106 
 428   0.0000       2.936875        79.9164 
 429   0.0000       2.946887        80.1889 
 430   0.0000       2.953463        80.3678 
 431   0.0000       2.957705        80.4833 
 432   0.0000       2.962529        80.6145 
 433   0.0000       2.980639        81.1073 
 434   0.0000       2.985986        81.2528 
 435   0.0000       2.992905        81.4411 
 436   0.0000       2.998824        81.6022 
 437   0.0000       3.017120        82.1000 
 438   0.0000       3.022863        82.2563 
 439   0.0000       3.041587        82.7658 
 440   0.0000       3.041980        82.7765 
 441   0.0000       3.055454        83.1431 
 442   0.0000       3.059051        83.2410 
 443   0.0000       3.066022        83.4307 
 444   0.0000       3.079602        83.8002 
 445   0.0000       3.088716        84.0482 
 446   0.0000       3.103783        84.4582 
 447   0.0000       3.132231        85.2323 
 448   0.0000       3.144673        85.5709 
 449   0.0000       3.158891        85.9578 
 450   0.0000       3.170381        86.2705 
 451   0.0000       3.183118        86.6170 
 452   0.0000       3.190701        86.8234 
 453   0.0000       3.199010        87.0495 
 454   0.0000       3.226574        87.7995 
 455   0.0000       3.243100        88.2492 
 456   0.0000       3.265343        88.8545 
 457   0.0000       3.287014        89.4442 
 458   0.0000       3.321792        90.3906 
 459   0.0000       3.334585        90.7387 
 460   0.0000       3.362671        91.5029 
 461   0.0000       3.449978        93.8787 
 462   0.0000       3.518130        95.7332 
 463   0.0000       3.578830        97.3849 
 464   0.0000       3.813560       103.7722 
 465   0.0000       3.832001       104.2741 
 466   0.0000       3.875321       105.4528 
 467   0.0000       3.899392       106.1078 
 468   0.0000       3.916089       106.5622 
 469   0.0000       3.943654       107.3123 
 470   0.0000       3.958884       107.7267 
 471   0.0000       3.978840       108.2697 
 472   0.0000       3.993654       108.6728 
 473   0.0000       4.036534       109.8397 
 474   0.0000       4.076558       110.9288 
 475   0.0000       4.099810       111.5615 
 476   0.0000       4.108666       111.8025 
 477   0.0000       4.133446       112.4768 
 478   0.0000       4.150620       112.9441 
 479   0.0000       4.164139       113.3120 
 480   0.0000       4.174492       113.5937 
 481   0.0000       4.189376       113.9987 
 482   0.0000       4.205585       114.4398 
 483   0.0000       4.215499       114.7096 
 484   0.0000       4.227430       115.0342 
 485   0.0000       4.232947       115.1844 
 486   0.0000       4.241535       115.4180 
 487   0.0000       4.258838       115.8889 
 488   0.0000       4.267748       116.1313 
 489   0.0000       4.276150       116.3600 
 490   0.0000       4.286364       116.6379 
 491   0.0000       4.291552       116.7791 
 492   0.0000       4.301822       117.0585 
 493   0.0000       4.315092       117.4196 
 494   0.0000       4.328390       117.7815 
 495   0.0000       4.331007       117.8527 
 496   0.0000       4.335521       117.9755 
 497   0.0000       4.345039       118.2345 
 498   0.0000       4.348072       118.3170 
 499   0.0000       4.367139       118.8359 
 500   0.0000       4.380572       119.2014 
 501   0.0000       4.383083       119.2697 
 502   0.0000       4.390453       119.4703 
 503   0.0000       4.397798       119.6702 
 504   0.0000       4.402942       119.8101 
 505   0.0000       4.416635       120.1828 
 506   0.0000       4.427771       120.4858 
 507   0.0000       4.433723       120.6477 
 508   0.0000       4.450728       121.1105 
 509   0.0000       4.454633       121.2167 
 510   0.0000       4.471441       121.6741 
 511   0.0000       4.478055       121.8541 
 512   0.0000       4.493431       122.2725 
 513   0.0000       4.501374       122.4886 
 514   0.0000       4.501773       122.4995 
 515   0.0000       4.511332       122.7596 
 516   0.0000       4.517388       122.9244 
 517   0.0000       4.530063       123.2693 
 518   0.0000       4.536699       123.4499 
 519   0.0000       4.541749       123.5873 
 520   0.0000       4.549901       123.8091 
 521   0.0000       4.553777       123.9146 
 522   0.0000       4.561154       124.1153 
 523   0.0000       4.565970       124.2464 
 524   0.0000       4.576710       124.5386 
 525   0.0000       4.578298       124.5818 
 526   0.0000       4.597051       125.0921 
 527   0.0000       4.606893       125.3599 
 528   0.0000       4.619634       125.7066 
 529   0.0000       4.626834       125.9026 
 530   0.0000       4.630654       126.0065 
 531   0.0000       4.648586       126.4945 
 532   0.0000       4.664668       126.9321 
 533   0.0000       4.679616       127.3388 
 534   0.0000       4.685631       127.5025 
 535   0.0000       4.698314       127.8476 
 536   0.0000       4.715663       128.3197 
 537   0.0000       4.729084       128.6849 
 538   0.0000       4.735074       128.8479 
 539   0.0000       4.744896       129.1152 
 540   0.0000       4.749745       129.2471 
 541   0.0000       4.764871       129.6587 
 542   0.0000       4.777206       129.9944 
 543   0.0000       4.794554       130.4665 
 544   0.0000       4.796760       130.5265 
 545   0.0000       4.806243       130.7845 
 546   0.0000       4.823624       131.2575 
 547   0.0000       4.827612       131.3660 
 548   0.0000       4.856525       132.1528 
 549   0.0000       4.861613       132.2912 
 550   0.0000       4.869782       132.5135 
 551   0.0000       4.880475       132.8045 
 552   0.0000       4.883981       132.8999 
 553   0.0000       4.910926       133.6331 
 554   0.0000       4.917424       133.8099 
 555   0.0000       4.922590       133.9505 
 556   0.0000       4.942645       134.4962 
 557   0.0000       4.947938       134.6402 
 558   0.0000       4.987096       135.7058 
 559   0.0000       5.009881       136.3258 
 560   0.0000       5.016311       136.5008 
 561   0.0000       5.034250       136.9889 
 562   0.0000       5.067268       137.8874 
 563   0.0000       5.104574       138.9025 
 564   0.0000       5.117481       139.2537 
 565   0.0000       5.140104       139.8693 
 566   0.0000       5.152711       140.2124 
 567   0.0000       5.153841       140.2431 
 568   0.0000       5.176856       140.8694 
 569   0.0000       5.185275       141.0985 
 570   0.0000       5.191140       141.2581 
 571   0.0000       5.206771       141.6834 
 572   0.0000       5.215808       141.9294 
 573   0.0000       5.221229       142.0769 
 574   0.0000       5.236526       142.4931 
 575   0.0000       5.249051       142.8340 
 576   0.0000       5.254767       142.9895 
[...]

Thresholds for map construction and integral transformation for weak Triples:
   TCutMKN   ...     1.0e-01
   TCutDO    ...     2.0e-02
   TCutCMO   ...     1.0e-03
   TCutCPAO  ...     1.0e-03

--------------------------------
LOCAL RI TRANSFORMATION (IAVPAO)
--------------------------------

Orbital window:       1 to 4
Number of PAOs:     736
Basis functions:    736 (256 shells)
Aux. functions:    1584 (448 shells)
Use SHARK:           on

Processing maps (0.0 sec)
Average map sizes:
   Aux shells -> MOs               2.0
   Aux shells -> PAOs            368.0
   MOs        -> AO shells       251.5
   PAOs       -> AO shells       156.8

Calculating integrals (2.8 sec, 17.798 MB)
Sorting integrals (0.3 sec, 17.789 MB)
Total time for the integral transformation: 3.2 sec
--------------------------------
INITIAL GUESS AND PNO GENERATION
--------------------------------

PNO truncation parameters                   .... 
    ScaleTCutPNO       =        1.000e-02
    PAOOverlapThresh   =        1.000e-08

    TCutPairs          =        1.000e-05
    TCutPNO            =        1.000e-07
    TCutPNOSingles     =        3.000e-09
    TCutMP2Pairs       =        1.000e-06
    TCutMKN            =        1.000e-03
    TCutDO             =        5.000e-03

Pair selection                          .... not used
Type of local MP2 treatment                 .... full local PMP2
Strategy for PNO selection                  .... occupation number selection
Pair density normalization                  .... MP2 norm
Spin component scaling                      .... not used

PASS-1: Formation of initial guess LMP2 amplitudes
Initial amplitudes guess done. Entering LMP2 iteration loop:
   Max. no of iterations          ...  50
   Energy convergence tolerance   ...    1.0e-07
   Residual convergence tolerance ...    5.0e-07
   Fock matrix cutoff             ...    1.0e-05 Eh
   DIIS convergence acceleration parameters:
        Max # vectors in DIIS     ... 7
        Start iteration of DIIS   ... 0
        Levelshift                ... 2.000e-01
        Damping factor 1          ... 5.000e-01
        Damping factor 2          ... 1.000e+00
   L-MP2 PNO cut-off              ...   1.0e-09
   L-MP2 PNO cut-off (core)       ...   1.0e-11
                           *** Turning on DIIS ***
LMP2-Iter=   0:  ELMP2= -0.267776301442  DE=   5.0e-03 RMAX=   4.9e-03
LMP2-Iter=   1:  ELMP2= -0.270512009266  DE=   2.7e-03 RMAX=   2.6e-03
LMP2-Iter=   2:  ELMP2= -0.270914461283  DE=   4.0e-04 RMAX=   5.1e-04
LMP2-Iter=   3:  ELMP2= -0.270968375565  DE=   5.4e-05 RMAX=   1.7e-04
LMP2-Iter=   4:  ELMP2= -0.270972821511  DE=   4.4e-06 RMAX=   2.3e-05
LMP2-Iter=   5:  ELMP2= -0.270972807221  DE=   1.4e-08 RMAX=   6.3e-06
LMP2-Iter=   6:  ELMP2= -0.270972786165  DE=   2.1e-08 RMAX=   6.8e-07
LMP2-Iter=   7:  ELMP2= -0.270972782208  DE=   4.0e-09 RMAX=   1.8e-07
LMP2-Iter=   8:  ELMP2= -0.270972783833  DE=   1.6e-09 RMAX=   1.6e-08 => CONVERGED
PASS-2: Formation of Pair natural orbitals
   .... Finished loop over pairs

 PNO Occupation Number Statistics: 
  | Av. % of trace(Dij) retained        ...  99.992553219831
  | sigma^2 in % of trace(Dij) retained ...   9.42e-07
  | Av. % of trace(Di) retained         ...  99.999734609841
  | sigma^2 in % of trace(Di) retained  ...   5.30e-09
 Distributions of % trace(Dij) recovered:
  |       >= 99.9  ...    10 (100.0 % of all pairs)
 Distributions of % trace(Di) recovered :
  |       >= 99.9  ...     4 (100.0 % of all I-pairs )

Making pair pair interaction lists          ... done

                       ===========================
                         10 OF   10 PAIRS ARE KEPT
                       ===========================

Total time spent in the initial guess                 ...    14.429 sec
L-MP2 correlation energy (all non-screened pairs)     ...      -0.270972783833 Eh
L-MP2 PNO error correction                            ...      -0.000000605363 Eh
                                                          --------------------
Initial total L-MP2 energy (non-screened pairs)       ...      -0.270973389196 Eh

Initial PNO correlation energy                        ...      -0.270922879581 Eh
sum of pair energies estimated for screened out pairs ...       0.000000000000 Eh
sum of MP2 pair energies for pairs that were not kept ...       0.000000000000 Eh
sum of PNO error estimates for the kept pairs         ...      -0.000050509616 Eh
                                                          --------------------
sum of all corrections                                         -0.000050509616
Initial total correlation energy                               -0.270973389196
Thresholds for map construction and integral transformation for fine MP2 and CCSD(T) calculation:
   TCutMKN   ...     1.0e-03
   TCutDO    ...     5.0e-03
   TCutPairs ...     1.0e-05
   TCutCMO   ...     1.0e-03
   TCutCPAO  ...     1.0e-03

Time for aux screen maps:            0.003
Time for maps after fine MP2:            0.011
-----------------------------
LOCAL RI TRANSFORMATION (IJV)
-----------------------------

Orbital window:       1 to 4
Basis functions:    736 (256 shells)
Aux. functions:    1584 (448 shells)
Use SHARK:           on

Processing maps (0.0 sec)
Average map sizes:
   Aux shells -> MOs(i)            2.0
   Aux shells -> MOs(j)            2.0
   MOs        -> AO shells       251.5

Calculating integrals (2.5 sec, 0.106 MB)
Sorting integrals (0.1 sec, 0.097 MB)
Total time for the integral transformation: 2.7 sec
--------------------------------
LOCAL RI TRANSFORMATION (VABPAO)
--------------------------------

Number of PAOs:     736
Basis functions:    736 (256 shells)
Aux. functions:    1584 (448 shells)
Use SHARK:           on

Processing maps (0.0 sec)
Average map sizes:
   Aux shells -> PAOs            368.0
   PAOs       -> AO shells       156.8

Calculating integrals (10.3 sec, 3273.197 MB)
Finished


-------------------------------------
Pair Pair Term precalculation with     
RI-(ij|mn) and (im|jn) transformation  
ON THE FLY                             
-------------------------------------

   IBatch   1 (of   1)              ... done (   12.754 sec)
Total EXT                           ...          12.754 sec

---------------------
RI-PNO TRANSFORMATION
---------------------

Total Number of PNOs                   ...   658
Average number of PNOs per pair        ...    65
Maximal number of PNOs per pair        ...    71
   #pairs with  1 -  5 PNOs   :    0
   #pairs with  6 - 10 PNOs   :    0
   #pairs with 11 - 15 PNOs   :    0
   #pairs with 16 - 20 PNOs   :    0
   #pairs with 21 - 25 PNOs   :    0
   #pairs with 26 - 30 PNOs   :    0
   #pairs with 31 - 35 PNOs   :    0
   #pairs with 36 - 40 PNOs   :    0
   #pairs with 41 - 45 PNOs   :    0
   #pairs with 46 - 50 PNOs   :    0
   #pairs with 56 - 60 PNOs   :    2
   #pairs with 61 - 65 PNOs   :    2
   #pairs with 66 - 70 PNOs   :    4
   #pairs with 71 - 75 PNOs   :    2

Generation of (ij|ab)[P] integrals            ... on
Generation of (ia|bc)[P],(ja|bc)[P] integrals ... on
Storage of 3 and 4 external integrals         ... on
Generation of ALL (ka|bc)[P] integrals        ... on
Keep RI integrals in memory                   ... off

Ibatch:  1 (of  1)
Starting 2-4 index PNO integral generation ... done

Timings:
Total PNO integral transformation time     ...         10.884 sec
Size of the 3-external file                ...        22 MB
Size of the 4-external file                ...       190 MB
Size of the IKJL file                      ...         0 MB
Size of the all 3-external file            ...        44 MB
Size of the 1-external file                ...         0 MB

Making pair/pair overlap matrices          ... done (    0.352 sec)
Size of the pair overlap file              ... 4 MB
Redoing the guess amplitudes               ... done (    0.069 sec)

-------------------------
FINAL STARTUP INFORMATION
-------------------------

E(0)                                       ...    -76.057980561
E(L-MP2)                                   ...     -0.270973389
E(L-MP2) including corrections             ...     -0.270973389
Initial E(tot)                             ...    -76.328953950
<T|T>                                      ...      0.058820571
Number of pairs included                   ... 10
Total number of pairs                      ... 10

------------------------------------------------
                  RHF COUPLED CLUSTER ITERATIONS
------------------------------------------------

Number of PNO amplitudes to be optimized   ...        43542
Number of non-PNO amplitudes               ...      5343610
Untruncated number of regular amplitudes   ...      5343610

Iter       E(tot)           E(Corr)          Delta-E          Residual     Time
  0    -76.320737517     -0.262706446      0.008266943      0.012511828    5.88
                           *** Turning on DIIS ***
  1    -76.326186422     -0.268155351     -0.005448905      0.007770001    6.11
  2    -76.332004058     -0.273972987     -0.005817636      0.002433168    5.76
  3    -76.333189591     -0.275158520     -0.001185533      0.001218111    6.69
  4    -76.333506990     -0.275475920     -0.000317400      0.000376675    6.55
  5    -76.333581819     -0.275550748     -0.000074828      0.000131329    6.59
  6    -76.333597162     -0.275566091     -0.000015344      0.000048584    6.24
  7    -76.333599686     -0.275568616     -0.000002524      0.000017560    6.38
               --- The Coupled-Cluster iterations have converged ---

----------------------
COUPLED CLUSTER ENERGY
----------------------

E(0)                                       ...    -76.057980561
E(CORR)(strong-pairs)                      ...     -0.275568616
E(CORR)(weak-pairs)                        ...     -0.000050510
E(CORR)(corrected)                         ...     -0.275619125
E(TOT)                                     ...    -76.333599686
Singles Norm <S|S>**1/2                    ...      0.028382079  
T1 diagnostic                              ...      0.010034580  

------------------
LARGEST AMPLITUDES
------------------
   3->  5   3->  5       0.039813
   4->  5   4->  5       0.035679
   4-> 12   4-> 12       0.032386
   4->  5   4-> 12       0.029823
   4-> 12   4->  5       0.029823
   3->  5   3-> 12       0.029716
   3-> 12   3->  5       0.029716
   3-> 12   3-> 12       0.026872
   2->  6   2->  6       0.021308
   1->  6   1->  6       0.019882
   1->  6  -1-> -1       0.014716
   2->  6  -1-> -1       0.014355
   2->  7   2->  7       0.014054
   1->  7   1->  7       0.013783
   2->  6   2-> 21       0.013502
   2-> 21   2->  6       0.013502


-------------------------------------------
DLPNO BASED TRIPLES CORRECTION
-------------------------------------------

Singles multiplier          ...  1.000000
TCutTNO                     ... 1.000e-09
TCutMP2Pairs                ... 1.000e-06
TCutDOStrong                ... 1.000e-02
TCutMKNStrong               ... 1.000e-02
TCutDOWeak                  ... 2.000e-02
TCutMKNWeak                 ... 1.000e-01

Fragment selection                          .... not used
Fock matrix occ-virt block is zero --> Setting DT_in_Triples to false.
Number of Triples that are to be computed   ...        16

 . . . . . . . . .
10% done  
20% done  
30% done  
40% done  
50% done  
60% done  
70% done  
80% done  
90% done               (      6.915 sec)
Triples timings:
Total time for T0               ...     8.462 sec
Total time for Iterative (T)    ...     0.000 sec
Total time of overall (T)       ...     8.995 sec

Triples List generation         ...     0.000 sec
TNO generation                  ...     1.337 sec
Pair density generation         ...     0.002 sec
Look up tables                  ...     0.000 sec
Generating 3-index integrals    ...     6.208 sec
  Make 4-ind.int. from 3-ind.int...     0.246 sec
  Projecting amplitudes (D + S) ...     0.160 sec
  Downprojecting integrals      ...     0.000 sec
  Energy contr. (sum over a,b,c)...     0.067 sec
Fitting ET(->0)                 ...     0.000 sec

Everything after 3-index        ...     0.707 sec

Timing details:
 TNO integrals                  ...     6.439 sec
   Reading 3-index integrals    ...     0.908 sec
   Sorting integrals            ...     0.696 sec
       Sorting integrals 1      ...     0.000 sec
       Sorting integrals 2      ...     0.589 sec
       Sorting integrals 3      ...     0.007 sec
       Sorting integrals 4      ...     0.000 sec
       Sorting integrals 5      ...     0.002 sec
       Sorting integrals 6      ...     0.098 sec
   Calculating local VM**-1/2   ...     0.004 sec
   Orthogonal. integrals        ...     0.012 sec
   Multipl. 3-index integrals   ...     4.820 sec
   All concerning IRIab (w/TNO) ...     0.123 sec

 Calculate W0/W1                ...     0.228 sec
 W 3-ext contribution           ...     0.159 sec
 W 3-int contribution           ...     0.016 sec
 Sorting W                      ...     0.048 sec

 V exchange contribution        ...     0.023 sec

 Timings for Triples without generation
     of 3-index integrals       ...     0.707 sec
       0 weak pairs             ...     0.707 sec
       1 weak pair              ...     0.000 sec
       2 weak pairs             ...     0.000 sec
       3 weak pairs             ...     0.000 sec
  Extra time for extrapolation  ...     0.000 sec

Number of Triples   (0, 1, 2, 3 weak pairs; overall):     16       0       0       0  (    16)
Number of Atoms     (0, 1, 2, 3 weak pairs; overall):   21.3     0.0     0.0     0.0  (    24)
Number of PAOs      (0, 1, 2, 3 weak pairs; overall):  651.2     0.0     0.0     0.0  (   736)
Number of AuxFcns   (0, 1, 2, 3 weak pairs; overall):  272.0     0.0     0.0     0.0  (  1584)
Number of TNOs      (0, 1, 2, 3 weak pairs         ):  101.4     0.0     0.0     0.0
Aver. Number of NTNO, Atoms, PAOs, AuxFcns / Triples:     16   101.4    21.3   651.2   272.0

Triples Correction (T)                     ...     -0.008550317
Final correlation energy                   ...     -0.284169442
E(CCSD)                                    ...    -76.333599686
E(CCSD(T))                                 ...    -76.342150003



------------------------------------------------------------------------------- 
                                     TIMINGS                                   
------------------------------------------------------------------------------- 


Total execution time                   ...      240.479 sec

Localization of occupied MO's          ...        1.599 sec (  0.7%)
Fock Matrix Formation                  ...      115.561 sec ( 48.1%)
Global overlap, Fock, MKN matrices     ...        1.561 sec (  0.6%)
Differential overlap integrals         ...        1.854 sec (  0.8%)
Organizing maps                        ...        0.035 sec (  0.0%)
RI 3-index integral generations        ...       18.001 sec (  7.5%)
RI-PNO integral transformation         ...       24.740 sec ( 10.3%)
Initial Guess                          ...       16.078 sec (  6.7%)
DIIS Solver                            ...        5.394 sec (  2.2%)
State Vector Update                    ...        0.003 sec (  0.0%)
Sigma-vector construction              ...       48.531 sec ( 20.2%)
  <D|H|D>(0-ext)                       ...        0.544 sec (  1.1% of sigma)
  <D|H|D>(2-ext Fock)                  ...        0.002 sec (  0.0% of sigma)
  <D|H|D>(2-ext)                       ...        1.838 sec (  3.8% of sigma)
  <D|H|D>(4-ext)                       ...        3.913 sec (  8.1% of sigma)
  <D|H|D>(4-ext-corr)                  ...       10.925 sec ( 22.5% of sigma)
  CCSD doubles correction              ...        0.174 sec (  0.4% of sigma)
  <S|H|S>                              ...       13.511 sec ( 27.8% of sigma)
  <S|H|D>(1-ext)                       ...        0.122 sec (  0.3% of sigma)
  <S|H|D>(3-ext)                       ...        0.088 sec (  0.2% of sigma)
  Fock-dressing                        ...        3.568 sec (  7.4% of sigma)
  Singles amplitudes                   ...        1.646 sec (  3.4% of sigma)
  (ik|jl)-dressing                     ...        2.102 sec (  4.3% of sigma)
  (ij|ab),(ia|jb)-dressing             ...        5.619 sec ( 11.6% of sigma)
  Pair energies                        ...        0.042 sec (  0.1% of sigma)
Total Time for computing (T)           ...        9.017 sec (  3.7% of ALL)


Maximum memory used throughout the entire MDCI-calculation: 548.5 MB

-------------------------   --------------------
FINAL SINGLE POINT ENERGY       -76.342150003339
-------------------------   --------------------


                            ***************************************
                            *     ORCA property calculations      *
                            ***************************************


  WARNING: The energy has been calculated at the MDCI level but the densities
           used in the property calculations are still SCF densities
           MDCI response densities have not been calculated 
           use %mdci Density linearized end
           or  %mdci Density unrelaxed end
           or  %mdci Density orbopt end

                                    ---------------------
                                    Active property flags
                                    ---------------------
   (+) Dipole Moment


------------------------------------------------------------------------------
                       ORCA ELECTRIC PROPERTIES CALCULATION
------------------------------------------------------------------------------

Dipole Moment Calculation                       ... on
Quadrupole Moment Calculation                   ... off
Polarizability Calculation                      ... off
GBWName                                         ... CP_job5.gbw
Electron density                                ... CP_job5.scfp
The origin for moment calculation is the CENTER OF MASS  = (10.519452, -3.771330 15.331614)

-------------
DIPOLE MOMENT
-------------
                                X             Y             Z
Electronic contribution:      0.12169       0.15266      -0.06019
Nuclear contribution   :     -0.57421      -0.72961       0.31455
                        -----------------------------------------
Total Dipole Moment    :     -0.45253      -0.57694       0.25436
                        -----------------------------------------
Magnitude (a.u.)       :      0.77611
Magnitude (Debye)      :      1.97270



--------------------
Rotational spectrum 
--------------------
 
Rotational constants in cm-1:    27.230416    13.657118     9.095413 
Rotational constants in MHz : 816347.320077 409430.091708 272673.615055 

 Dipole components along the rotational axes: 
x,y,z [a.u.] :    -0.052955    -0.774297    -0.000095 
x,y,z [Debye]:    -0.134601    -1.968107    -0.000242 

 

Timings for individual modules:

Sum of individual times         ...      871.709 sec (=  14.528 min)
GTO integral calculation        ...        3.996 sec (=   0.067 min)   0.5 %
SCF iterations                  ...      624.452 sec (=  10.408 min)  71.6 %
MDCI module                     ...      243.261 sec (=   4.054 min)  27.9 %

Energy for            dimer from job 1  =   -610.784945564
Energy for         fragment from job 2  =   -534.417618346
Energy for         fragment from job 3  =    -76.340914968
Energy for            ghost from job 4  =   -534.418877928
Energy for            ghost from job 5  =    -76.342150003


Energy for fragment            dimer:   -610.784945564 Eh
Energy for fragment         fragment:   -610.758533314 Eh   16.574 kcal/mol
Energy for fragment            ghost:   -610.761027932 Eh   15.009 kcal/mol

----------------------------
REACTION ENERGIES (kcal/mol)  16.574  15.009 
----------------------------

                             ****ORCA TERMINATED NORMALLY****
TOTAL RUN TIME: 0 days 3 hours 41 minutes 54 seconds 411 msec
