
                                 *****************
                                 * O   R   C   A *
                                 *****************

                                            #,                                       
                                            ###                                      
                                            ####                                     
                                            #####                                    
                                            ######                                   
                                           ########,                                 
                                     ,,################,,,,,                         
                               ,,#################################,,                 
                          ,,##########################################,,             
                       ,#########################################, ''#####,          
                    ,#############################################,,   '####,        
                  ,##################################################,,,,####,       
                ,###########''''           ''''###############################       
              ,#####''   ,,,,##########,,,,          '''####'''          '####       
            ,##' ,,,,###########################,,,                        '##       
           ' ,,###''''                  '''############,,,                           
         ,,##''                                '''############,,,,        ,,,,,,###''
      ,#''                                            '''#######################'''  
     '                                                          ''''####''''         
             ,#######,   #######,   ,#######,      ##                                
            ,#'     '#,  ##    ##  ,#'     '#,    #''#        ######   ,####,        
            ##       ##  ##   ,#'  ##            #'  '#       #        #'  '#        
            ##       ##  #######   ##           ,######,      #####,   #    #        
            '#,     ,#'  ##    ##  '#,     ,#' ,#      #,         ##   #,  ,#        
             '#######'   ##     ##  '#######'  #'      '#     #####' # '####'        



                  #######################################################
                  #                        -***-                        #
                  #          Department of theory and spectroscopy      #
                  #    Directorship and core code : Frank Neese         #
                  #        Max Planck Institute fuer Kohlenforschung    #
                  #                Kaiser Wilhelm Platz 1               #
                  #                 D-45470 Muelheim/Ruhr               #
                  #                      Germany                        #
                  #                                                     #
                  #                  All rights reserved                #
                  #                        -***-                        #
                  #######################################################


                         Program Version 5.0.1 -  RELEASE  -


 With contributions from (in alphabetic order):
   Daniel Aravena         : Magnetic Suceptibility
   Michael Atanasov       : Ab Initio Ligand Field Theory (pilot matlab implementation)
   Alexander A. Auer      : GIAO ZORA, VPT2 properties, NMR spectrum
   Ute Becker             : Parallelization
   Giovanni Bistoni       : ED, misc. LED, open-shell LED, HFLD
   Martin Brehm           : Molecular dynamics
   Dmytro Bykov           : SCF Hessian
   Vijay G. Chilkuri      : MRCI spin determinant printing, contributions to CSF-ICE
   Dipayan Datta          : RHF DLPNO-CCSD density
   Achintya Kumar Dutta   : EOM-CC, STEOM-CC
   Dmitry Ganyushin       : Spin-Orbit,Spin-Spin,Magnetic field MRCI
   Miquel Garcia          : C-PCM and meta-GGA Hessian, CC/C-PCM, Gaussian charge scheme
   Yang Guo               : DLPNO-NEVPT2, F12-NEVPT2, CIM, IAO-localization
   Andreas Hansen         : Spin unrestricted coupled pair/coupled cluster methods
   Benjamin Helmich-Paris : MC-RPA, TRAH-SCF, COSX integrals
   Lee Huntington         : MR-EOM, pCC
   Robert Izsak           : Overlap fitted RIJCOSX, COSX-SCS-MP3, EOM
   Marcus Kettner         : VPT2
   Christian Kollmar      : KDIIS, OOCD, Brueckner-CCSD(T), CCSD density, CASPT2, CASPT2-K
   Simone Kossmann        : Meta GGA functionals, TD-DFT gradient, OOMP2, MP2 Hessian
   Martin Krupicka        : Initial AUTO-CI
   Lucas Lang             : DCDCAS
   Marvin Lechner         : AUTO-CI (C++ implementation), FIC-MRCC
   Dagmar Lenk            : GEPOL surface, SMD
   Dimitrios Liakos       : Extrapolation schemes; Compound Job, initial MDCI parallelization
   Dimitrios Manganas     : Further ROCIS development; embedding schemes
   Dimitrios Pantazis     : SARC Basis sets
   Anastasios Papadopoulos: AUTO-CI, single reference methods and gradients
   Taras Petrenko         : DFT Hessian,TD-DFT gradient, ASA, ECA, R-Raman, ABS, FL, XAS/XES, NRVS
   Peter Pinski           : DLPNO-MP2, DLPNO-MP2 Gradient
   Christoph Reimann      : Effective Core Potentials
   Marius Retegan         : Local ZFS, SOC
   Christoph Riplinger    : Optimizer, TS searches, QM/MM, DLPNO-CCSD(T), (RO)-DLPNO pert. Triples
   Tobias Risthaus        : Range-separated hybrids, TD-DFT gradient, RPA, STAB
   Michael Roemelt        : Original ROCIS implementation
   Masaaki Saitow         : Open-shell DLPNO-CCSD energy and density
   Barbara Sandhoefer     : DKH picture change effects
   Avijit Sen             : IP-ROCIS
   Kantharuban Sivalingam : CASSCF convergence, NEVPT2, FIC-MRCI
   Bernardo de Souza      : ESD, SOC TD-DFT
   Georgi Stoychev        : AutoAux, RI-MP2 NMR, DLPNO-MP2 response
   Willem Van den Heuvel  : Paramagnetic NMR
   Boris Wezisla          : Elementary symmetry handling
   Frank Wennmohs         : Technical directorship


 We gratefully acknowledge several colleagues who have allowed us to
 interface, adapt or use parts of their codes:
   Stefan Grimme, W. Hujo, H. Kruse, P. Pracht,  : VdW corrections, initial TS optimization,
                  C. Bannwarth, S. Ehlert          DFT functionals, gCP, sTDA/sTD-DF
   Ed Valeev, F. Pavosevic, A. Kumar             : LibInt (2-el integral package), F12 methods
   Garnet Chan, S. Sharma, J. Yang, R. Olivares  : DMRG
   Ulf Ekstrom                                   : XCFun DFT Library
   Mihaly Kallay                                 : mrcc  (arbitrary order and MRCC methods)
   Jiri Pittner, Ondrej Demel                    : Mk-CCSD
   Frank Weinhold                                : gennbo (NPA and NBO analysis)
   Christopher J. Cramer and Donald G. Truhlar   : smd solvation model
   Lars Goerigk                                  : TD-DFT with DH, B97 family of functionals
   V. Asgeirsson, H. Jonsson                     : NEB implementation
   FAccTs GmbH                                   : IRC, NEB, NEB-TS, DLPNO-Multilevel, CI-OPT
                                                   MM, QMMM, 2- and 3-layer-ONIOM, Crystal-QMMM,
                                                   LR-CPCM, SF, NACMEs, symmetry and pop. for TD-DFT,
                                                   nearIR, NL-DFT gradient (VV10), updates on ESD,
                                                   ML-optimized integration grids
   S Lehtola, MJT Oliveira, MAL Marques          : LibXC Library
   Liviu Ungur et al                             : ANISO software


 Your calculation uses the libint2 library for the computation of 2-el integrals
 For citations please refer to: http://libint.valeyev.net

 Your ORCA version has been built with support for libXC version: 5.1.0
 For citations please refer to: https://tddft.org/programs/libxc/

 This ORCA versions uses:
   CBLAS   interface :  Fast vector & matrix operations
   LAPACKE interface :  Fast linear algebra routines
   SCALAPACK package :  Parallel linear algebra routines
   Shared memory     :  Shared parallel matrices
   BLAS/LAPACK       :  OpenBLAS 0.3.15  USE64BITINT DYNAMIC_ARCH NO_AFFINITY Haswell SINGLE_THREADED
        Core in use  :  Haswell
   Copyright (c) 2011-2014, The OpenBLAS Project




***************************************
The coordinates will be read from file: surf_inp.xyz
***************************************


Preparing ONIOM calculation             ...         done
================================================================================

----- Orbital basis set information -----
Your calculation utilizes the basis: aug-cc-pVTZ 
    H, B-Ne : Obtained from the ccRepo (grant-hill.group.shef.ac.uk/ccrepo) Feb. 2017
              R. A. Kendall, T. H. Dunning, Jr., R. J. Harrison, J. Chem. Phys. 96, 6796 (1992)
         He : Obtained from the ccRepo (grant-hill.group.shef.ac.uk/ccrepo) Feb. 2017
              D. E. Woon, T. H. Dunning, Jr., J. Chem. Phys. 100, 2975 (1994)
  Li-Be, Na : Obtained from the ccRepo (grant-hill.group.shef.ac.uk/ccrepo) Feb. 2017
              B. P. Prascher, D. E. Woon, K. A. Peterson, T. H. Dunning, Jr., A. K. Wilson, Theor. Chem. Acc. 128, 69 (2011)
         Mg : Obtained from the Peterson Research Group Website (tyr0.chem.wsu.edu/~kipeters) Feb. 2017
              B. P. Prascher, D. E. Woon, K. A. Peterson, T. H. Dunning, Jr., A. K. Wilson, Theor. Chem. Acc. 128, 69 (2011)
      Al-Ar : Obtained from the ccRepo (grant-hill.group.shef.ac.uk/ccrepo) Feb. 2017
              D. E. Woon, T. H. Dunning, Jr., J. Chem. Phys. 98, 1358 (1993)
      Sc-Zn : Obtained from the ccRepo (grant-hill.group.shef.ac.uk/ccrepo) Feb. 2017
              N. B. Balabanov, K. A. Peterson, J. Chem. Phys. 123, 064107 (2005)
              N. B. Balabanov, K. A. Peterson, J. Chem. Phys. 125, 074110 (2006)
      Ga-Kr : Obtained from the ccRepo (grant-hill.group.shef.ac.uk/ccrepo) Feb. 2017
              A. K. Wilson, D. E. Woon, K. A. Peterson, T. H. Dunning, Jr., J. Chem. Phys. 110, 7667 (1999)
     Ag, Au : Obtained from the Peterson Research Group Website (tyr0.chem.wsu.edu/~kipeters) Feb. 2017
              K. A. Peterson, C. Puzzarini, Theor. Chem. Acc. 114, 283 (2005)

----- AuxC basis set information -----
Your calculation utilizes the auxiliary basis: aug-cc-pVTZ/C 
  H-He, B-F, Al-Ar, Ga-Kr : Obtained from the EMSL Basis Set Exchange (bse.pnl.gov) Feb. 2017
                            F. Weigend, A. Kohn, C. Hattig, J. Chem. Phys. 116, 3175 (2002)
                   Be, Mg : Obtained from the TURBOMOLE 7.0 basis set library
                            C. Haettig, Phys. Chem. Chem. Phys. 7, 59 (2005)
                       Ne : Obtained from the EMSL Basis Set Exchange (bse.pnl.gov) Feb. 2017
                            C. Haettig, Phys. Chem. Chem. Phys. 7, 59 (2005)
                            F. Weigend, A. Kohn, C. Hattig, J. Chem. Phys. 116, 3175 (2002)
                    Sc-Zn : Obtained from the EMSL Basis Set Exchange (bse.pnl.gov) Feb. 2017
                            J. G. Hill, J. A. Platts, J. Chem. Phys. 128, 044104 (2008)

================================================================================
                                        WARNINGS
                       Please study these warnings very carefully!
================================================================================


WARNING: Post HF methods need fully converged wavefunctions
  ===> : Setting SCFConvForced true
         You can overwrite this default with %scf ConvForced false 


WARNING: MDCI localization with Augmented Hessian Foster-Boys
  ===> : Switching off randomization!

INFO   : the flag for use of the SHARK integral package has been found!

================================================================================
                                       INPUT FILE
================================================================================
NAME = surf_def.inp
|  1> !QM/XTB2 DLPNO-CCSD(T) aug-cc-pVTZ aug-cc-pVTZ/C TightPNO
|  2> %maxcore 2000
|  3> %pal
|  4> nprocs 24
|  5> end
|  6> %qmmm
|  7> QMAtoms {141 142 143 174 175 176 228 229 230 252 253 254 258 259 260 276 277 278 462 463 464 } end 
|  8> ActiveAtoms {141 142 143 174 175 176 228 229 230 252 253 254 258 259 260 276 277 278 462 463 464 } end 
|  9> end
| 10> *xyzfile 0 1 surf_inp.xyz 
| 11> 
| 12> 
| 13>                          ****END OF INPUT****
================================================================================

------------------------------------------------------------------------------

                             **************************
                             *    2-layered ONIOM     *
                             **************************


------------------------------------------------------------------------------




Multiscale model                       ... QM1/QM2
QM2 method                             ... XTB2
Coupling Scheme                        ... subtractive
Embedding Scheme                       ... electrostatic
PrintLevel                             ... 1
Method for determining QM2 charges     ... Hirshfeld
Charge of total system                 ... 0
Charge alteration scheme               ... Charge shifting
Scaling factor for CS scheme           ... 0.06
Gradient projection scheme             ... Lever rule
Scaling factor for QM2 charges         ... 1.00
AutoFF method                          ... XTB2
AutoFF boundary                        ... no covalent bonds
Point charges in QM calc. from MM atoms... 579
              from charge shift scheme ... 0
Printing trajectories, xyz and allxyz files:
        QMMMRegion                     ... YES
        activeRegion                   ... YES
        activeRegionExt                ... NO
        qmRegion                       ... YES
        qm2Region                      ... NO
Parameter files:
        ORCA Forcefield Filename       ... surf_def_L_QM2.ORCAFF.prms.tmp
        QM-LA bond distances Filename  ... surf_def.H_DIST.prms.tmp
Forcefield type                        ... ORCA
Size of different subsystems (in atoms):
Size of QMMM System                    ... 600
Size of QM2 Subsystem                  ... 579
Size of QM1 Subsystem                  ... 21
Number of link atoms                   ... 0
Size of QM1 Subsystem plus link atoms  ... 21
Size of region for optimizer           ... 46
        optimized atoms = activeRegion ... 21
        fixed atoms (distance cutoff)  ... 25 ( 1.0)
Composition of different systems (atoms start counting at 0):
QM1 Subsystem                          ... 141 142 143 174 175 176 228 229 230 252 
                                           253 254 258 259 260 276 277 278 462 463 
                                           464 
Active atoms                           ... 141 142 143 174 175 176 228 229 230 252 
                                           253 254 258 259 260 276 277 278 462 463 
                                           464 
Fixed atoms used in optimizer          ...  15  17  42  43  44 102 103 104 124 125 
                                           156 157 231 232 334 344 357 360 361 362 
                                           386 414 479 562 563 

                       ****************************
                       * Single Point Calculation *
                       ****************************

                    ************************************                      
                    *       QM/   XTB2 SP Energy       *                      
                    ************************************                      


------------------------------------------------------------------------------
                          XTB2 - FULL SYSTEM                         
------------------------------------------------------------------------------
Running XTB calculation
---------------------------------   --------------------
FINAL SINGLE POINT ENERGY (L-QM2)    -1018.332859282850
---------------------------------   --------------------
------------------------------------------------------------------------------
                                  XTB2 - SMALL SYSTEM                         
------------------------------------------------------------------------------
Running XTB calculation
---------------------------------   --------------------
FINAL SINGLE POINT ENERGY (S-QM2)      -35.645013747680
---------------------------------   --------------------
------------------------------------------------------------------------------
                                QM - SMALL SYSTEM                           
------------------------------------------------------------------------------
---------------------------------
CARTESIAN COORDINATES (ANGSTROEM)
---------------------------------
  H      1.949787   -3.682083    4.133091
  O      1.777261   -4.137274    4.986214
  H      2.353667   -3.666162    5.611390
  H      4.385483   -2.524424    5.618700
  O      4.112587   -3.186434    6.295074
  H      4.491239   -4.035007    5.958003
  H      4.965008   -2.151161    3.559849
  O      4.967531   -1.486181    4.280155
  H      4.170765   -0.913959    4.117225
  H      2.044189   -0.824010    5.279337
  O      1.497809   -1.375590    5.866505
  H      1.497512   -0.951838    6.742220
  H      5.715844   -5.452747    4.594842
  O      5.184847   -5.512574    5.423870
  H      4.406015   -6.041099    5.184590
  H      4.655797   -0.352761    7.575577
  O      4.244265    0.295077    6.982695
  H      4.993621    0.760250    6.572560
  H      7.070080   -2.549325    6.704825
  O      7.337563   -3.151538    5.995593
  H      6.666500   -3.842216    6.014070

----------------------------
CARTESIAN COORDINATES (A.U.)
----------------------------
  NO LB      ZA    FRAG     MASS         X           Y           Z
   0 H     1.0000    0     1.008    3.684563   -6.958128    7.810410
   1 O     8.0000    0    15.999    3.358537   -7.818315    9.422579
   2 H     1.0000    0     1.008    4.447786   -6.928042   10.603990
   3 H     1.0000    0     1.008    8.287362   -4.770470   10.617804
   4 O     8.0000    0    15.999    7.771663   -6.021488   11.895966
   5 H     1.0000    0     1.008    8.487212   -7.625058   11.258994
   6 H     1.0000    0     1.008    9.382505   -4.065105    6.727140
   7 O     8.0000    0    15.999    9.387273   -2.808475    8.088321
   8 H     1.0000    0     1.008    7.881604   -1.727132    7.780428
   9 H     1.0000    0     1.008    3.862957   -1.557153    9.976501
  10 O     8.0000    0    15.999    2.830449   -2.599488   11.086088
  11 H     1.0000    0     1.008    2.829888   -1.798713   12.740949
  12 H     1.0000    0     1.008   10.801380  -10.304199    8.682993
  13 O     8.0000    0    15.999    9.797941  -10.417255   10.249629
  14 H     1.0000    0     1.008    8.326162  -11.416023    9.797455
  15 H     1.0000    0     1.008    8.798181   -0.666622   14.315766
  16 O     8.0000    0    15.999    8.020498    0.557615   13.195381
  17 H     1.0000    0     1.008    9.436576    1.436664   12.420338
  18 H     1.0000    0     1.008   13.360515   -4.817526   12.670283
  19 O     8.0000    0    15.999   13.865985   -5.955544   11.330029
  20 H     1.0000    0     1.008   12.597859   -7.260736   11.364945

--------------------------------
INTERNAL COORDINATES (ANGSTROEM)
--------------------------------
 H      0   0   0     0.000000000000     0.00000000     0.00000000
 O      1   0   0     0.982233638340     0.00000000     0.00000000
 H      2   1   0     0.972129324913   103.28743439     0.00000000
 H      3   2   1     2.330642691319   139.14175968   329.97815142
 O      4   3   2     0.984993022712    55.34564378   224.82385000
 H      5   4   3     0.988468680573   103.69099242    93.36556740
 H      4   3   2     2.171184453932   108.29671525    12.79611981
 O      7   4   3     0.980329281193    54.58869641   132.09725303
 H      8   7   4     0.994394419202   105.53863929   255.57139732
 H      9   8   7     2.425060949115   130.20035401   105.94008253
 O     10   9   8     0.973415564404   139.48696643   339.87423584
 H     11  10   9     0.972852818744   107.23726930   111.01493353
 H      6   5   4     2.316862539200   158.19116995     6.06765658
 O     13   6   5     0.986318664896    42.09984897   174.92251805
 H     14  13   6     0.971170880046   104.93121780   112.24926634
 H      4   3   2     2.935737971498   116.40691731   149.60182312
 O     16   4   3     0.969825616898    92.72672408   274.21567914
 H     17  16   4     0.972692681627   104.49626024   262.17090370
 H      4   3   2     2.896091957766   143.61831253   242.73937137
 O     19   4   3     0.968100037435    89.23905667    84.63376141
 H     20  19   4     0.963173426327   103.85775936   310.40777075

---------------------------
INTERNAL COORDINATES (A.U.)
---------------------------
 H      0   0   0     0.000000000000     0.00000000     0.00000000
 O      1   0   0     1.856152575987     0.00000000     0.00000000
 H      2   1   0     1.837058190840   103.28743439     0.00000000
 H      3   2   1     4.404276402619   139.14175968   329.97815142
 O      4   3   2     1.861367056750    55.34564378   224.82385000
 H      5   4   3     1.867935098242   103.69099242    93.36556740
 H      4   3   2     4.102944004158   108.29671525    12.79611981
 O      7   4   3     1.852553862519    54.58869641   132.09725303
 H      8   7   4     1.879133121391   105.53863929   255.57139732
 H      9   8   7     4.582701051894   130.20035401   105.94008253
 O     10   9   8     1.839488831220   139.48696643   339.87423584
 H     11  10   9     1.838425396039   107.23726930   111.01493353
 H      6   5   4     4.378235689028   158.19116995     6.06765658
 O     13   6   5     1.863872157428    42.09984897   174.92251805
 H     14  13   6     1.835246992526   104.93121780   112.24926634
 H      4   3   2     5.547740767084   116.40691731   149.60182312
 O     16   4   3     1.832704813599    92.72672408   274.21567914
 H     17  16   4     1.838122780744   104.49626024   262.17090370
 H      4   3   2     5.472820658829   143.61831253   242.73937137
 O     19   4   3     1.829443940991    89.23905667    84.63376141
 H     20  19   4     1.820133995228   103.85775936   310.40777075

---------------------
BASIS SET INFORMATION
---------------------
There are 2 groups of distinct atoms

 Group   1 Type H   : 6s3p2d contracted to 4s3p2d pattern {3111/111/11}
 Group   2 Type O   : 19s6p3d2f contracted to 5s4p3d2f pattern {88111/3111/111/11}

Atom   0H    basis set group =>   1
Atom   1O    basis set group =>   2
Atom   2H    basis set group =>   1
Atom   3H    basis set group =>   1
Atom   4O    basis set group =>   2
Atom   5H    basis set group =>   1
Atom   6H    basis set group =>   1
Atom   7O    basis set group =>   2
Atom   8H    basis set group =>   1
Atom   9H    basis set group =>   1
Atom  10O    basis set group =>   2
Atom  11H    basis set group =>   1
Atom  12H    basis set group =>   1
Atom  13O    basis set group =>   2
Atom  14H    basis set group =>   1
Atom  15H    basis set group =>   1
Atom  16O    basis set group =>   2
Atom  17H    basis set group =>   1
Atom  18H    basis set group =>   1
Atom  19O    basis set group =>   2
Atom  20H    basis set group =>   1
---------------------------------
AUXILIARY/C BASIS SET INFORMATION
---------------------------------
There are 2 groups of distinct atoms

 Group   1 Type H   : 5s4p3d2f contracted to 5s4p3d2f pattern {11111/1111/111/11}
 Group   2 Type O   : 9s7p6d4f2g contracted to 9s7p6d4f2g pattern {111111111/1111111/111111/1111/11}

Atom   0H    basis set group =>   1
Atom   1O    basis set group =>   2
Atom   2H    basis set group =>   1
Atom   3H    basis set group =>   1
Atom   4O    basis set group =>   2
Atom   5H    basis set group =>   1
Atom   6H    basis set group =>   1
Atom   7O    basis set group =>   2
Atom   8H    basis set group =>   1
Atom   9H    basis set group =>   1
Atom  10O    basis set group =>   2
Atom  11H    basis set group =>   1
Atom  12H    basis set group =>   1
Atom  13O    basis set group =>   2
Atom  14H    basis set group =>   1
Atom  15H    basis set group =>   1
Atom  16O    basis set group =>   2
Atom  17H    basis set group =>   1
Atom  18H    basis set group =>   1
Atom  19O    basis set group =>   2
Atom  20H    basis set group =>   1


           ************************************************************
           *        Program running with 24 parallel MPI-processes    *
           *              working on a common directory               *
           ************************************************************
------------------------------------------------------------------------------
                           ORCA GTO INTEGRAL CALCULATION
------------------------------------------------------------------------------
------------------------------------------------------------------------------
                   ___                                                        
                  /   \      - P O W E R E D   B Y -                         
                 /     \                                                     
                 |  |  |   _    _      __       _____    __    __             
                 |  |  |  | |  | |    /  \     |  _  \  |  |  /  |          
                  \  \/   | |  | |   /    \    | | | |  |  | /  /          
                 / \  \   | |__| |  /  /\  \   | |_| |  |  |/  /          
                |  |  |   |  __  | /  /__\  \  |    /   |      \           
                |  |  |   | |  | | |   __   |  |    \   |  |\   \          
                \     /   | |  | | |  |  |  |  | |\  \  |  | \   \       
                 \___/    |_|  |_| |__|  |__|  |_| \__\ |__|  \__/        
                                                                              
                      - O R C A' S   B I G   F R I E N D -                    
                                      &                                       
                       - I N T E G R A L  F E E D E R -                       
                                                                              
 v1 FN, 2020, v2 2021                                                         
------------------------------------------------------------------------------


Reading SHARK input file surf_def.SHARKINP.tmp ... ok
----------------------
SHARK INTEGRAL PACKAGE
----------------------

Number of atoms                             ...     21
Number of basis functions                   ...    644
Number of shells                            ...    224
Maximum angular momentum                    ...      3
Integral batch strategy                     ... SHARK/LIBINT Hybrid
RI-J (if used) integral strategy            ... SPLIT-RIJ (Revised 2003 algorithm where possible)
Printlevel                                  ...      1
Contraction scheme used                     ... SEGMENTED contraction
Coulomb Range Separation                    ... NOT USED
Exchange Range Separation                   ... NOT USED
Finite Nucleus Model                        ... NOT USED
Auxiliary Coulomb fitting basis             ... NOT available
Auxiliary J/K fitting basis                 ... NOT available
Auxiliary Correlation fitting basis         ... AVAILABLE
   # of basis functions in Aux-C            ...   1386
   # of shells in Aux-C                     ...    392
   Maximum angular momentum in Aux-C        ...      4
Auxiliary 'external' fitting basis          ... NOT available
Integral threshold                          ...     1.000000e-10
Primitive cut-off                           ...     1.000000e-11
Primitive pair pre-selection threshold      ...     1.000000e-11

Calculating pre-screening integrals         ... done (  0.4 sec) Dimension = 224
Organizing shell pair data                  ... done (  0.3 sec)
Shell pair information
Total number of shell pairs                 ...     25200
Shell pairs after pre-screening             ...     22438
Total number of primitive shell pairs       ...     66885
Primitive shell pairs kept                  ...     43476
          la=0 lb=0:   3803 shell pairs
          la=1 lb=0:   5734 shell pairs
          la=1 lb=1:   2211 shell pairs
          la=2 lb=0:   3998 shell pairs
          la=2 lb=1:   3034 shell pairs
          la=2 lb=2:   1077 shell pairs
          la=3 lb=0:   1098 shell pairs
          la=3 lb=1:    828 shell pairs
          la=3 lb=2:    570 shell pairs
          la=3 lb=3:     85 shell pairs

Reading point charge file                   ... ok (579 point charges)
Calculating one electron integrals          ... done (  0.2 sec)
Calculating RI/C V-Matrix + Cholesky decomp.... done (  0.4 sec)
Calculating Nuclear repulsion               ... (+Point charges) done (  0.0 sec) ENN=    363.340982977745 Eh

SHARK setup successfully completed in   1.5 seconds

Maximum memory used throughout the entire GTOINT-calculation: 35.9 MB
ENUC WAS=  0.000000000
ENUC IS =  0.000000000


           ************************************************************
           *        Program running with 24 parallel MPI-processes    *
           *              working on a common directory               *
           ************************************************************
-------------------------------------------------------------------------------
                                 ORCA SCF
-------------------------------------------------------------------------------

------------
SCF SETTINGS
------------
Hamiltonian:
 Ab initio Hamiltonian  Method          .... Hartree-Fock(GTOs)


General Settings:
 Integral files         IntName         .... surf_def
 Hartree-Fock type      HFTyp           .... RHF
 Total Charge           Charge          ....    0
 Multiplicity           Mult            ....    1
 Number of Electrons    NEL             ....   70
 Basis Dimension        Dim             ....  644
 Nuclear Repulsion      ENuc            ....    363.3409829777 Eh

Convergence Acceleration:
 DIIS                   CNVDIIS         .... on
   Start iteration      DIISMaxIt       ....    12
   Startup error        DIISStart       ....  0.200000
   # of expansion vecs  DIISMaxEq       ....     5
   Bias factor          DIISBfac        ....   1.050
   Max. coefficient     DIISMaxC        ....  10.000
 Trust-Rad. Augm. Hess. CNVTRAH         .... auto
   Auto Start mean grad. ratio tolernc. ....  1.125000
   Auto Start start iteration           ....    20
   Auto Start num. interpolation iter.  ....    10
   Max. Number of Micro iterations      ....    16
   Max. Number of Macro iterations      .... Maxiter - #DIIS iter
   Number of Davidson start vectors     ....     2
   Converg. threshold I  (grad. norm)   ....   5.000e-05
   Converg. threshold II (energy diff.) ....   1.000e-06
   Grad. Scal. Fac. for Micro threshold ....   0.100
   Minimum threshold for Micro iter.    ....   0.010
   NR start threshold (gradient norm)   ....   0.001
   Initial trust radius                 ....   0.400
   Minimum AH scaling param. (alpha)    ....   1.000
   Maximum AH scaling param. (alpha)    .... 1000.000
   Orbital update algorithm             .... Taylor
   White noise on init. David. guess    .... on
   Maximum white noise                  ....   0.010
   Quad. conv. algorithm                .... NR
 SOSCF                  CNVSOSCF        .... on
   Start iteration      SOSCFMaxIt      ....   150
   Startup grad/error   SOSCFStart      ....  0.003300
 Level Shifting         CNVShift        .... on
   Level shift para.    LevelShift      ....    0.2500
   Turn off err/grad.   ShiftErr        ....    0.0010
 Zerner damping         CNVZerner       .... off
 Static damping         CNVDamp         .... on
   Fraction old density DampFac         ....    0.7000
   Max. Damping (<1)    DampMax         ....    0.9800
   Min. Damping (>=0)   DampMin         ....    0.0000
   Turn off err/grad.   DampErr         ....    0.1000
 Fernandez-Rico         CNVRico         .... off

SCF Procedure:
 Maximum # iterations   MaxIter         ....   125
 SCF integral mode      SCFMode         .... Direct
   Integral package                     .... SHARK and LIBINT hybrid scheme
 Reset frequency        DirectResetFreq ....    20
 Integral Threshold     Thresh          ....  1.000e-10 Eh
 Primitive CutOff       TCut            ....  1.000e-11 Eh

Convergence Tolerance:
 Convergence Check Mode ConvCheckMode   .... Total+1el-Energy
 Convergence forced     ConvForced      .... 1
 Energy Change          TolE            ....  1.000e-06 Eh
 1-El. energy change                    ....  1.000e-03 Eh
 Orbital Gradient       TolG            ....  5.000e-05
 Orbital Rotation angle TolX            ....  5.000e-05
 DIIS Error             TolErr          ....  1.000e-06


Diagonalization of the overlap matrix:
Smallest eigenvalue                        ... 3.252e-05
Time for diagonalization                   ...    0.187 sec
Threshold for overlap eigenvalues          ... 1.000e-08
Number of eigenvalues below threshold      ... 0
Time for construction of square roots      ...    0.204 sec
Total time needed                          ...    0.395 sec

Time for model grid setup =    0.257 sec

------------------------------
INITIAL GUESS: MODEL POTENTIAL
------------------------------
Loading Hartree-Fock densities                     ... done
Calculating cut-offs                               ... done
Initializing the effective Hamiltonian             ... done
Setting up the integral package (SHARK)            ... done
Starting the Coulomb interaction                   ... done (   0.3 sec)
Reading the grid                                   ... done
Mapping shells                                     ... done
Starting the XC term evaluation                    ... done (   0.1 sec)
Transforming the Hamiltonian                       ... done (   0.1 sec)
Diagonalizing the Hamiltonian                      ... done (   0.1 sec)
Back transforming the eigenvectors                 ... done (   0.0 sec)
Now organizing SCF variables                       ... done
                      ------------------
                      INITIAL GUESS DONE (   0.9 sec)
                      ------------------
--------------
SCF ITERATIONS
--------------
ITER       Energy         Delta-E        Max-DP      RMS-DP      [F,P]     Damp
               ***  Starting incremental Fock matrix formation  ***
  0   -531.9005091465   0.000000000000 0.02797551  0.00043008  0.4004077 0.7000
  1   -532.1769918942  -0.276482747617 0.01853027  0.00030702  0.2356845 0.7000
                               ***Turning on DIIS***
  2   -532.3226225110  -0.145630616848 0.01216077  0.00017650  0.1265196 0.7000
  3   -533.4011181417  -1.078495630703 0.03760933  0.00034663  0.0852597 0.0000
  4   -532.4228230145   0.978295127174 0.00605331  0.00007140  0.0140104 0.0000
  5   -532.5885479337  -0.165724919133 0.00278665  0.00003305  0.0034015 0.0000
                      *** Initiating the SOSCF procedure ***
                           *** Shutting down DIIS ***
                      *** Re-Reading the Fockian *** 
                      *** Removing any level shift *** 
ITER      Energy       Delta-E        Grad      Rot      Max-DP    RMS-DP
  6   -532.59218479  -0.0036368574  0.000443  0.000443  0.001806  0.000017
               *** Restarting incremental Fock matrix formation ***
  7   -532.60357454  -0.0113897457  0.000119  0.000193  0.000362  0.000005
  8   -532.60357987  -0.0000053357  0.000049  0.000149  0.000309  0.000004
  9   -532.60358107  -0.0000011973  0.000021  0.000013  0.000045  0.000001
                  ***Gradient check signals convergence***
              ***Rediagonalizing the Fockian in SOSCF/NRSCF***

               *****************************************************
               *                     SUCCESS                       *
               *           SCF CONVERGED AFTER  10 CYCLES          *
               *****************************************************


----------------
TOTAL SCF ENERGY
----------------

Total Energy       :         -532.60358113 Eh          -14492.88025 eV

Components:
Nuclear Repulsion  :          363.34098298 Eh            9887.01079 eV
Electronic Energy  :         -895.94456411 Eh          -24379.89104 eV
One Electron Energy:        -1458.25370102 Eh          -39681.10055 eV
Two Electron Energy:          562.30913691 Eh           15301.20951 eV

Virial components:
Potential Energy   :        -1063.96188008 Eh          -28951.87464 eV
Kinetic Energy     :          531.35829895 Eh           14458.99440 eV
Virial Ratio       :            2.00234358


---------------
SCF CONVERGENCE
---------------

  Last Energy change         ...   -6.3201e-08  Tolerance :   1.0000e-06
  Last MAX-Density change    ...    2.0332e-05  Tolerance :   1.0000e-05
  Last RMS-Density change    ...    1.9812e-07  Tolerance :   1.0000e-06
  Last Orbital Gradient      ...    6.4979e-06  Tolerance :   5.0000e-05
  Last Orbital Rotation      ...    6.5509e-06  Tolerance :   5.0000e-05

             **** THE GBW FILE WAS UPDATED (surf_def.gbw) ****
             **** DENSITY surf_def.scfp WAS UPDATED ****
             **** ENERGY FILE WAS UPDATED (surf_def.en.tmp) ****
             **** THE GBW FILE WAS UPDATED (surf_def.gbw) ****
             **** DENSITY surf_def.scfp WAS UPDATED ****
----------------
ORBITAL ENERGIES
----------------

  NO   OCC          E(Eh)            E(eV) 
   0   2.0000     -20.615501      -560.9763 
   1   2.0000     -20.600848      -560.5776 
   2   2.0000     -20.599010      -560.5275 
   3   2.0000     -20.594242      -560.3978 
   4   2.0000     -20.581984      -560.0643 
   5   2.0000     -20.574039      -559.8481 
   6   2.0000     -20.543604      -559.0199 
   7   2.0000      -1.391685       -37.8697 
   8   2.0000      -1.384627       -37.6776 
   9   2.0000      -1.378114       -37.5004 
  10   2.0000      -1.376084       -37.4451 
  11   2.0000      -1.362967       -37.0882 
  12   2.0000      -1.354357       -36.8539 
  13   2.0000      -1.324640       -36.0453 
  14   2.0000      -0.751874       -20.4595 
  15   2.0000      -0.748503       -20.3678 
  16   2.0000      -0.739882       -20.1332 
  17   2.0000      -0.731804       -19.9134 
  18   2.0000      -0.727312       -19.7912 
  19   2.0000      -0.716281       -19.4910 
  20   2.0000      -0.709110       -19.2959 
  21   2.0000      -0.640091       -17.4178 
  22   2.0000      -0.627846       -17.0845 
  23   2.0000      -0.623810       -16.9747 
  24   2.0000      -0.615097       -16.7377 
  25   2.0000      -0.610349       -16.6084 
  26   2.0000      -0.595649       -16.2084 
  27   2.0000      -0.590993       -16.0817 
  28   2.0000      -0.547987       -14.9115 
  29   2.0000      -0.546335       -14.8665 
  30   2.0000      -0.543401       -14.7867 
  31   2.0000      -0.534514       -14.5449 
  32   2.0000      -0.526370       -14.3233 
  33   2.0000      -0.519906       -14.1474 
  34   2.0000      -0.488331       -13.2882 
  35   0.0000       0.004570         0.1244 
  36   0.0000       0.022427         0.6103 
  37   0.0000       0.032012         0.8711 
  38   0.0000       0.034841         0.9481 
  39   0.0000       0.044848         1.2204 
  40   0.0000       0.049660         1.3513 
  41   0.0000       0.053454         1.4545 
  42   0.0000       0.055822         1.5190 
  43   0.0000       0.063165         1.7188 
  44   0.0000       0.074306         2.0220 
  45   0.0000       0.078176         2.1273 
  46   0.0000       0.079322         2.1585 
  47   0.0000       0.082367         2.2413 
  48   0.0000       0.091772         2.4973 
  49   0.0000       0.121738         3.3127 
  50   0.0000       0.135128         3.6770 
  51   0.0000       0.138398         3.7660 
  52   0.0000       0.140759         3.8303 
  53   0.0000       0.150261         4.0888 
  54   0.0000       0.160900         4.3783 
  55   0.0000       0.163512         4.4494 
  56   0.0000       0.168797         4.5932 
  57   0.0000       0.170980         4.6526 
  58   0.0000       0.179358         4.8806 
  59   0.0000       0.183883         5.0037 
  60   0.0000       0.186202         5.0668 
  61   0.0000       0.190537         5.1848 
  62   0.0000       0.193711         5.2711 
  63   0.0000       0.200064         5.4440 
  64   0.0000       0.204719         5.5707 
  65   0.0000       0.206136         5.6092 
  66   0.0000       0.206825         5.6280 
  67   0.0000       0.216571         5.8932 
  68   0.0000       0.220871         6.0102 
  69   0.0000       0.224476         6.1083 
  70   0.0000       0.226225         6.1559 
  71   0.0000       0.228459         6.2167 
  72   0.0000       0.236637         6.4392 
  73   0.0000       0.242418         6.5965 
  74   0.0000       0.248164         6.7529 
  75   0.0000       0.255640         6.9563 
  76   0.0000       0.261776         7.1233 
  77   0.0000       0.266826         7.2607 
  78   0.0000       0.281111         7.6494 
  79   0.0000       0.284294         7.7360 
  80   0.0000       0.292105         7.9486 
  81   0.0000       0.300930         8.1887 
  82   0.0000       0.307279         8.3615 
  83   0.0000       0.312757         8.5105 
  84   0.0000       0.319962         8.7066 
  85   0.0000       0.329633         8.9698 
  86   0.0000       0.333529         9.0758 
  87   0.0000       0.342281         9.3139 
  88   0.0000       0.348385         9.4800 
  89   0.0000       0.368523        10.0280 
  90   0.0000       0.372428        10.1343 
  91   0.0000       0.374741        10.1972 
  92   0.0000       0.376819        10.2538 
  93   0.0000       0.380964        10.3666 
  94   0.0000       0.388468        10.5707 
  95   0.0000       0.398438        10.8420 
  96   0.0000       0.403577        10.9819 
  97   0.0000       0.407486        11.0883 
  98   0.0000       0.410745        11.1769 
  99   0.0000       0.418923        11.3995 
 100   0.0000       0.423045        11.5116 
 101   0.0000       0.425203        11.5704 
 102   0.0000       0.433667        11.8007 
 103   0.0000       0.436173        11.8689 
 104   0.0000       0.438375        11.9288 
 105   0.0000       0.442697        12.0464 
 106   0.0000       0.445768        12.1300 
 107   0.0000       0.448581        12.2065 
 108   0.0000       0.451771        12.2933 
 109   0.0000       0.457391        12.4462 
 110   0.0000       0.464443        12.6381 
 111   0.0000       0.467436        12.7196 
 112   0.0000       0.470627        12.8064 
 113   0.0000       0.475735        12.9454 
 114   0.0000       0.477492        12.9932 
 115   0.0000       0.482890        13.1401 
 116   0.0000       0.489011        13.3067 
 117   0.0000       0.493759        13.4359 
 118   0.0000       0.501273        13.6403 
 119   0.0000       0.504954        13.7405 
 120   0.0000       0.510958        13.9039 
 121   0.0000       0.518257        14.1025 
 122   0.0000       0.520813        14.1720 
 123   0.0000       0.525818        14.3082 
 124   0.0000       0.535099        14.5608 
 125   0.0000       0.538783        14.6610 
 126   0.0000       0.546800        14.8792 
 127   0.0000       0.552675        15.0391 
 128   0.0000       0.572674        15.5833 
 129   0.0000       0.579255        15.7623 
 130   0.0000       0.585992        15.9457 
 131   0.0000       0.590267        16.0620 
 132   0.0000       0.600767        16.3477 
 133   0.0000       0.614286        16.7156 
 134   0.0000       0.616013        16.7626 
 135   0.0000       0.628190        17.0939 
 136   0.0000       0.641194        17.4478 
 137   0.0000       0.649969        17.6865 
 138   0.0000       0.665852        18.1187 
 139   0.0000       0.666229        18.1290 
 140   0.0000       0.671584        18.2747 
 141   0.0000       0.686292        18.6750 
 142   0.0000       0.696473        18.9520 
 143   0.0000       0.702803        19.1242 
 144   0.0000       0.712944        19.4002 
 145   0.0000       0.716498        19.4969 
 146   0.0000       0.731241        19.8981 
 147   0.0000       0.739782        20.1305 
 148   0.0000       0.747659        20.3448 
 149   0.0000       0.752221        20.4690 
 150   0.0000       0.759049        20.6548 
 151   0.0000       0.767287        20.8790 
 152   0.0000       0.773423        21.0459 
 153   0.0000       0.785431        21.3727 
 154   0.0000       0.793016        21.5791 
 155   0.0000       0.799321        21.7506 
 156   0.0000       0.806953        21.9583 
 157   0.0000       0.808305        21.9951 
 158   0.0000       0.813731        22.1427 
 159   0.0000       0.829454        22.5706 
 160   0.0000       0.833546        22.6819 
 161   0.0000       0.842236        22.9184 
 162   0.0000       0.852099        23.1868 
 163   0.0000       0.857090        23.3226 
 164   0.0000       0.861923        23.4541 
 165   0.0000       0.868993        23.6465 
 166   0.0000       0.879317        23.9274 
 167   0.0000       0.881030        23.9741 
 168   0.0000       0.893616        24.3165 
 169   0.0000       0.905267        24.6336 
 170   0.0000       0.906886        24.6776 
 171   0.0000       0.917275        24.9603 
 172   0.0000       0.924521        25.1575 
 173   0.0000       0.933192        25.3934 
 174   0.0000       0.937683        25.5156 
 175   0.0000       0.943168        25.6649 
 176   0.0000       0.952365        25.9152 
 177   0.0000       0.955527        26.0012 
 178   0.0000       0.958409        26.0796 
 179   0.0000       0.966864        26.3097 
 180   0.0000       0.973683        26.4952 
 181   0.0000       0.980705        26.6863 
 182   0.0000       0.986383        26.8408 
 183   0.0000       0.991863        26.9900 
 184   0.0000       0.998865        27.1805 
 185   0.0000       1.005877        27.3713 
 186   0.0000       1.010778        27.5047 
 187   0.0000       1.014509        27.6062 
 188   0.0000       1.021418        27.7942 
 189   0.0000       1.025549        27.9066 
 190   0.0000       1.027976        27.9727 
 191   0.0000       1.034380        28.1469 
 192   0.0000       1.041800        28.3488 
 193   0.0000       1.048877        28.5414 
 194   0.0000       1.052192        28.6316 
 195   0.0000       1.065769        29.0010 
 196   0.0000       1.068326        29.0706 
 197   0.0000       1.072460        29.1831 
 198   0.0000       1.073147        29.2018 
 199   0.0000       1.079815        29.3833 
 200   0.0000       1.084895        29.5215 
 201   0.0000       1.087534        29.5933 
 202   0.0000       1.094381        29.7796 
 203   0.0000       1.107600        30.1393 
 204   0.0000       1.111133        30.2355 
 205   0.0000       1.113944        30.3120 
 206   0.0000       1.124198        30.5910 
 207   0.0000       1.130203        30.7544 
 208   0.0000       1.141018        31.0487 
 209   0.0000       1.146028        31.1850 
 210   0.0000       1.157101        31.4863 
 211   0.0000       1.158884        31.5348 
 212   0.0000       1.163078        31.6490 
 213   0.0000       1.168447        31.7951 
 214   0.0000       1.174739        31.9663 
 215   0.0000       1.182016        32.1643 
 216   0.0000       1.189239        32.3608 
 217   0.0000       1.195776        32.5387 
 218   0.0000       1.197451        32.5843 
 219   0.0000       1.210378        32.9361 
 220   0.0000       1.217310        33.1247 
 221   0.0000       1.223407        33.2906 
 222   0.0000       1.230653        33.4878 
 223   0.0000       1.236507        33.6471 
 224   0.0000       1.242255        33.8035 
 225   0.0000       1.248457        33.9722 
 226   0.0000       1.249537        34.0016 
 227   0.0000       1.259135        34.2628 
 228   0.0000       1.267644        34.4943 
 229   0.0000       1.280708        34.8498 
 230   0.0000       1.286815        35.0160 
 231   0.0000       1.294343        35.2209 
 232   0.0000       1.301984        35.4288 
 233   0.0000       1.306103        35.5409 
 234   0.0000       1.309719        35.6393 
 235   0.0000       1.325542        36.0698 
 236   0.0000       1.329221        36.1699 
 237   0.0000       1.332940        36.2711 
 238   0.0000       1.342512        36.5316 
 239   0.0000       1.346832        36.6492 
 240   0.0000       1.356827        36.9211 
 241   0.0000       1.364248        37.1231 
 242   0.0000       1.372592        37.3501 
 243   0.0000       1.375936        37.4411 
 244   0.0000       1.392092        37.8808 
 245   0.0000       1.396118        37.9903 
 246   0.0000       1.416377        38.5416 
 247   0.0000       1.421233        38.6737 
 248   0.0000       1.430790        38.9338 
 249   0.0000       1.444876        39.3171 
 250   0.0000       1.457824        39.6694 
 251   0.0000       1.474587        40.1256 
 252   0.0000       1.478343        40.2278 
 253   0.0000       1.482977        40.3538 
 254   0.0000       1.498609        40.7792 
 255   0.0000       1.510793        41.1108 
 256   0.0000       1.518873        41.3306 
 257   0.0000       1.529264        41.6134 
 258   0.0000       1.531426        41.6722 
 259   0.0000       1.539493        41.8917 
 260   0.0000       1.549586        42.1664 
 261   0.0000       1.557182        42.3731 
 262   0.0000       1.566416        42.6243 
 263   0.0000       1.585990        43.1570 
 264   0.0000       1.590445        43.2782 
 265   0.0000       1.599577        43.5267 
 266   0.0000       1.607263        43.7358 
 267   0.0000       1.613089        43.8944 
 268   0.0000       1.622297        44.1450 
 269   0.0000       1.627965        44.2992 
 270   0.0000       1.639712        44.6188 
 271   0.0000       1.656671        45.0803 
 272   0.0000       1.670149        45.4471 
 273   0.0000       1.677720        45.6531 
 274   0.0000       1.694139        46.0999 
 275   0.0000       1.695628        46.1404 
 276   0.0000       1.699006        46.2323 
 277   0.0000       1.717879        46.7459 
 278   0.0000       1.729581        47.0643 
 279   0.0000       1.748507        47.5793 
 280   0.0000       1.760499        47.9056 
 281   0.0000       1.771323        48.2002 
 282   0.0000       1.779601        48.4254 
 283   0.0000       1.800895        49.0048 
 284   0.0000       1.817181        49.4480 
 285   0.0000       1.824983        49.6603 
 286   0.0000       1.830287        49.8046 
 287   0.0000       1.833668        49.8966 
 288   0.0000       1.837349        49.9968 
 289   0.0000       1.851886        50.3924 
 290   0.0000       1.864333        50.7311 
 291   0.0000       1.876878        51.0725 
 292   0.0000       1.884922        51.2913 
 293   0.0000       1.896979        51.6194 
 294   0.0000       1.914503        52.0963 
 295   0.0000       1.915923        52.1349 
 296   0.0000       1.930116        52.5211 
 297   0.0000       1.951696        53.1084 
 298   0.0000       1.959230        53.3134 
 299   0.0000       1.977362        53.8068 
 300   0.0000       1.988514        54.1102 
 301   0.0000       1.996384        54.3244 
 302   0.0000       2.015836        54.8537 
 303   0.0000       2.029625        55.2289 
 304   0.0000       2.058376        56.0113 
 305   0.0000       2.063405        56.1481 
 306   0.0000       2.071181        56.3597 
 307   0.0000       2.090441        56.8838 
 308   0.0000       2.098610        57.1061 
 309   0.0000       2.108947        57.3874 
 310   0.0000       2.139123        58.2085 
 311   0.0000       2.151139        58.5355 
 312   0.0000       2.172435        59.1150 
 313   0.0000       2.212502        60.2052 
 314   0.0000       2.235026        60.8182 
 315   0.0000       2.236373        60.8548 
 316   0.0000       2.264430        61.6183 
 317   0.0000       2.286336        62.2144 
 318   0.0000       2.309391        62.8417 
 319   0.0000       2.318039        63.0771 
 320   0.0000       2.336603        63.5822 
 321   0.0000       2.343610        63.7729 
 322   0.0000       2.357945        64.1629 
 323   0.0000       2.376437        64.6661 
 324   0.0000       2.383025        64.8454 
 325   0.0000       2.393973        65.1433 
 326   0.0000       2.395978        65.1979 
 327   0.0000       2.402066        65.3635 
 328   0.0000       2.416989        65.7696 
 329   0.0000       2.423116        65.9363 
 330   0.0000       2.442401        66.4611 
 331   0.0000       2.443356        66.4871 
 332   0.0000       2.464152        67.0530 
 333   0.0000       2.473503        67.3074 
 334   0.0000       2.488115        67.7050 
 335   0.0000       2.491958        67.8096 
 336   0.0000       2.503949        68.1359 
 337   0.0000       2.516136        68.4676 
 338   0.0000       2.528754        68.8109 
 339   0.0000       2.530817        68.8670 
 340   0.0000       2.531769        68.8929 
 341   0.0000       2.542078        69.1735 
 342   0.0000       2.552747        69.4638 
 343   0.0000       2.561990        69.7153 
 344   0.0000       2.566578        69.8401 
 345   0.0000       2.576368        70.1065 
 346   0.0000       2.588441        70.4351 
 347   0.0000       2.593923        70.5842 
 348   0.0000       2.602151        70.8081 
 349   0.0000       2.616949        71.2108 
 350   0.0000       2.628644        71.5290 
 351   0.0000       2.630736        71.5860 
 352   0.0000       2.646456        72.0137 
 353   0.0000       2.664392        72.5018 
 354   0.0000       2.675660        72.8084 
 355   0.0000       2.692987        73.2799 
 356   0.0000       2.699861        73.4669 
 357   0.0000       2.708935        73.7139 
 358   0.0000       2.713611        73.8411 
 359   0.0000       2.723438        74.1085 
 360   0.0000       2.731058        74.3159 
 361   0.0000       2.736005        74.4505 
 362   0.0000       2.749794        74.8257 
 363   0.0000       2.758688        75.0677 
 364   0.0000       2.770982        75.4023 
 365   0.0000       2.775265        75.5188 
 366   0.0000       2.785244        75.7903 
 367   0.0000       2.792460        75.9867 
 368   0.0000       2.796949        76.1088 
 369   0.0000       2.805718        76.3475 
 370   0.0000       2.811990        76.5181 
 371   0.0000       2.821966        76.7896 
 372   0.0000       2.828226        76.9599 
 373   0.0000       2.841216        77.3134 
 374   0.0000       2.848103        77.5008 
 375   0.0000       2.851444        77.5917 
 376   0.0000       2.865469        77.9734 
 377   0.0000       2.872413        78.1623 
 378   0.0000       2.876038        78.2610 
 379   0.0000       2.887804        78.5811 
 380   0.0000       2.900101        78.9158 
 381   0.0000       2.915107        79.3241 
 382   0.0000       2.923763        79.5596 
 383   0.0000       2.934005        79.8383 
 384   0.0000       2.948223        80.2252 
 385   0.0000       2.950630        80.2907 
 386   0.0000       2.969100        80.7933 
 387   0.0000       2.981864        81.1406 
 388   0.0000       2.983135        81.1752 
 389   0.0000       2.997820        81.5748 
 390   0.0000       3.011188        81.9386 
 391   0.0000       3.023742        82.2802 
 392   0.0000       3.035092        82.5890 
 393   0.0000       3.045117        82.8618 
 394   0.0000       3.054630        83.1207 
 395   0.0000       3.071776        83.5873 
 396   0.0000       3.104527        84.4785 
 397   0.0000       3.135945        85.3334 
 398   0.0000       3.171270        86.2946 
 399   0.0000       3.181807        86.5814 
 400   0.0000       3.216147        87.5158 
 401   0.0000       3.253448        88.5308 
 402   0.0000       3.289836        89.5210 
 403   0.0000       3.320813        90.3639 
 404   0.0000       3.355148        91.2982 
 405   0.0000       3.373063        91.7857 
 406   0.0000       3.768783       102.5538 
 407   0.0000       3.781664       102.9043 
 408   0.0000       3.790092       103.1336 
 409   0.0000       3.814219       103.7902 
 410   0.0000       3.846036       104.6560 
 411   0.0000       3.895216       105.9942 
 412   0.0000       3.909742       106.3895 
 413   0.0000       3.930512       106.9547 
 414   0.0000       3.945222       107.3549 
 415   0.0000       3.964546       107.8808 
 416   0.0000       4.051630       110.2505 
 417   0.0000       4.070002       110.7504 
 418   0.0000       4.086666       111.2038 
 419   0.0000       4.094105       111.4063 
 420   0.0000       4.103813       111.6704 
 421   0.0000       4.137951       112.5994 
 422   0.0000       4.145976       112.8177 
 423   0.0000       4.163223       113.2871 
 424   0.0000       4.173991       113.5801 
 425   0.0000       4.194197       114.1299 
 426   0.0000       4.209325       114.5416 
 427   0.0000       4.220783       114.8533 
 428   0.0000       4.228380       115.0601 
 429   0.0000       4.236182       115.2724 
 430   0.0000       4.249585       115.6371 
 431   0.0000       4.254132       115.7608 
 432   0.0000       4.261417       115.9591 
 433   0.0000       4.275852       116.3518 
 434   0.0000       4.283952       116.5723 
 435   0.0000       4.289058       116.7112 
 436   0.0000       4.301892       117.0604 
 437   0.0000       4.308248       117.2334 
 438   0.0000       4.315472       117.4300 
 439   0.0000       4.325665       117.7073 
 440   0.0000       4.347452       118.3002 
 441   0.0000       4.353859       118.4745 
 442   0.0000       4.370707       118.9330 
 443   0.0000       4.375343       119.0591 
 444   0.0000       4.383353       119.2771 
 445   0.0000       4.390514       119.4720 
 446   0.0000       4.401703       119.7764 
 447   0.0000       4.408635       119.9651 
 448   0.0000       4.418608       120.2364 
 449   0.0000       4.422414       120.3400 
 450   0.0000       4.430453       120.5588 
 451   0.0000       4.454176       121.2043 
 452   0.0000       4.463946       121.4701 
 453   0.0000       4.468413       121.5917 
 454   0.0000       4.481688       121.9529 
 455   0.0000       4.488641       122.1421 
 456   0.0000       4.500475       122.4642 
 457   0.0000       4.502025       122.5063 
 458   0.0000       4.509792       122.7177 
 459   0.0000       4.521490       123.0360 
 460   0.0000       4.529670       123.2586 
 461   0.0000       4.536733       123.4508 
 462   0.0000       4.549880       123.8085 
 463   0.0000       4.561372       124.1212 
 464   0.0000       4.564703       124.2119 
 465   0.0000       4.572989       124.4374 
 466   0.0000       4.583805       124.7317 
 467   0.0000       4.598585       125.1338 
 468   0.0000       4.622539       125.7857 
 469   0.0000       4.631119       126.0192 
 470   0.0000       4.655275       126.6765 
 471   0.0000       4.658756       126.7712 
 472   0.0000       4.689587       127.6101 
 473   0.0000       4.696900       127.8091 
 474   0.0000       4.703513       127.9891 
 475   0.0000       4.709678       128.1569 
 476   0.0000       4.725935       128.5992 
 477   0.0000       4.741257       129.0162 
 478   0.0000       4.751927       129.3065 
 479   0.0000       4.769332       129.7801 
 480   0.0000       4.793089       130.4266 
 481   0.0000       4.801347       130.6513 
 482   0.0000       4.816155       131.0542 
 483   0.0000       4.826985       131.3489 
 484   0.0000       4.836131       131.5978 
 485   0.0000       4.851097       132.0051 
 486   0.0000       4.861776       132.2956 
 487   0.0000       4.873338       132.6103 
 488   0.0000       4.880940       132.8171 
 489   0.0000       4.908297       133.5616 
 490   0.0000       4.917161       133.8027 
 491   0.0000       4.960212       134.9742 
 492   0.0000       4.967947       135.1847 
 493   0.0000       4.981403       135.5509 
 494   0.0000       5.020995       136.6282 
 495   0.0000       5.107322       138.9773 
 496   0.0000       5.125778       139.4795 
 497   0.0000       5.132964       139.6751 
 498   0.0000       5.141472       139.9066 
 499   0.0000       5.148580       140.1000 
 500   0.0000       5.155551       140.2897 
 501   0.0000       5.160301       140.4189 
 502   0.0000       5.173964       140.7907 
 503   0.0000       5.182979       141.0360 
 504   0.0000       5.204620       141.6249 
 505   0.0000       5.207947       141.7154 
 506   0.0000       5.225559       142.1947 
 507   0.0000       5.249889       142.8567 
 508   0.0000       5.258490       143.0908 
 509   0.0000       5.268380       143.3599 
 510   0.0000       5.285135       143.8158 
 511   0.0000       5.302159       144.2791 
 512   0.0000       5.318073       144.7121 
 513   0.0000       5.327951       144.9809 
 514   0.0000       5.333404       145.1293 
 515   0.0000       5.356978       145.7708 
 516   0.0000       5.378689       146.3616 
 517   0.0000       5.390885       146.6934 
 518   0.0000       5.399254       146.9212 
 519   0.0000       5.402486       147.0091 
 520   0.0000       5.430652       147.7755 
 521   0.0000       5.468336       148.8010 
 522   0.0000       5.489446       149.3754 
 523   0.0000       5.524329       150.3246 
 524   0.0000       5.531465       150.5188 
 525   0.0000       5.556397       151.1973 
 526   0.0000       5.566221       151.4646 
 527   0.0000       5.583406       151.9322 
 528   0.0000       5.620249       152.9348 
 529   0.0000       5.665263       154.1596 
 530   0.0000       5.698086       155.0528 
 531   0.0000       5.712268       155.4387 
 532   0.0000       5.719798       155.6436 
 533   0.0000       5.754947       156.6001 
 534   0.0000       5.812555       158.1677 
 535   0.0000       5.840920       158.9395 
 536   0.0000       5.869972       159.7301 
 537   0.0000       5.918228       161.0432 
 538   0.0000       5.995000       163.1322 
 539   0.0000       6.214417       169.1029 
 540   0.0000       6.263083       170.4272 
 541   0.0000       6.272053       170.6712 
 542   0.0000       6.314794       171.8343 
 543   0.0000       6.345569       172.6717 
 544   0.0000       6.366102       173.2304 
 545   0.0000       6.533962       177.7981 
 546   0.0000       6.540954       177.9884 
 547   0.0000       6.561509       178.5477 
 548   0.0000       6.574283       178.8953 
 549   0.0000       6.595943       179.4847 
 550   0.0000       6.646326       180.8557 
 551   0.0000       6.658085       181.1757 
 552   0.0000       6.715593       182.7406 
 553   0.0000       6.727419       183.0624 
 554   0.0000       6.793737       184.8670 
 555   0.0000       6.804843       185.1692 
 556   0.0000       6.828718       185.8189 
 557   0.0000       6.847532       186.3308 
 558   0.0000       6.856714       186.5807 
 559   0.0000       6.893255       187.5750 
 560   0.0000       6.926064       188.4678 
 561   0.0000       6.930432       188.5866 
 562   0.0000       6.957524       189.3239 
 563   0.0000       6.976783       189.8479 
 564   0.0000       6.996274       190.3783 
 565   0.0000       7.023500       191.1191 
 566   0.0000       7.068683       192.3486 
 567   0.0000       7.143721       194.3905 
 568   0.0000       7.176762       195.2896 
 569   0.0000       7.185600       195.5301 
 570   0.0000       7.192328       195.7132 
 571   0.0000       7.207020       196.1130 
 572   0.0000       7.220638       196.4836 
 573   0.0000       7.268493       197.7858 
 574   0.0000       7.275801       197.9846 
 575   0.0000       7.283668       198.1987 
 576   0.0000       7.292366       198.4354 
 577   0.0000       7.293745       198.4729 
 578   0.0000       7.299018       198.6164 
 579   0.0000       7.306832       198.8290 
 580   0.0000       7.314169       199.0287 
 581   0.0000       7.316854       199.1017 
 582   0.0000       7.318383       199.1433 
 583   0.0000       7.333075       199.5431 
 584   0.0000       7.337317       199.6586 
 585   0.0000       7.344591       199.8565 
 586   0.0000       7.357289       200.2020 
 587   0.0000       7.364647       200.4022 
 588   0.0000       7.371656       200.5930 
 589   0.0000       7.379391       200.8034 
 590   0.0000       7.382704       200.8936 
 591   0.0000       7.393116       201.1769 
 592   0.0000       7.405662       201.5183 
 593   0.0000       7.410212       201.6421 
 594   0.0000       7.422244       201.9695 
 595   0.0000       7.426360       202.0815 
 596   0.0000       7.445128       202.5922 
 597   0.0000       7.455859       202.8842 
 598   0.0000       7.463447       203.0907 
 599   0.0000       7.482754       203.6161 
 600   0.0000       7.488023       203.7595 
 601   0.0000       7.496306       203.9849 
 602   0.0000       7.525580       204.7814 
 603   0.0000       7.535069       205.0397 
 604   0.0000       7.558516       205.6777 
 605   0.0000       7.566380       205.8917 
 606   0.0000       7.578302       206.2161 
 607   0.0000       7.606812       206.9919 
 608   0.0000       7.629429       207.6073 
 609   0.0000       7.651073       208.1963 
 610   0.0000       7.672428       208.7774 
 611   0.0000       7.744528       210.7393 
 612   0.0000       7.777645       211.6405 
 613   0.0000       7.796872       212.1637 
 614   0.0000       7.816730       212.7040 
 615   0.0000       7.875631       214.3068 
 616   0.0000       7.886312       214.5975 
 617   0.0000       7.901453       215.0095 
 618   0.0000       7.915139       215.3819 
 619   0.0000       7.921998       215.5685 
 620   0.0000       7.946429       216.2333 
 621   0.0000       7.974230       216.9898 
 622   0.0000       7.994156       217.5320 
 623   0.0000       7.998257       217.6436 
 624   0.0000       8.017938       218.1792 
 625   0.0000       8.036308       218.6790 
 626   0.0000       8.065069       219.4617 
 627   0.0000       8.145016       221.6372 
 628   0.0000       8.234780       224.0798 
 629   0.0000       8.295768       225.7393 
 630   0.0000       8.757602       238.3065 
 631   0.0000       8.772696       238.7172 
 632   0.0000       8.793153       239.2739 
 633   0.0000       8.812246       239.7934 
 634   0.0000       8.824864       240.1368 
 635   0.0000       8.886666       241.8185 
 636   0.0000       9.147501       248.9162 
 637   0.0000      15.697852       427.1603 
 638   0.0000      15.766811       429.0367 
 639   0.0000      15.931801       433.5264 
 640   0.0000      16.394783       446.1247 
 641   0.0000      16.564538       450.7440 
 642   0.0000      16.591373       451.4742 
 643   0.0000      18.105419       492.6735 

                    ********************************
                    * MULLIKEN POPULATION ANALYSIS *
                    ********************************

-----------------------
MULLIKEN ATOMIC CHARGES
-----------------------
   0 H :    0.223856
   1 O :   -0.667077
   2 H :    0.477574
   3 H :    0.502054
   4 O :   -0.866063
   5 H :    0.334336
   6 H :    0.193790
   7 O :   -0.465589
   8 H :    0.250688
   9 H :    0.333089
  10 O :   -0.597103
  11 H :    0.255299
  12 H :    0.231771
  13 O :   -0.387031
  14 H :    0.188652
  15 H :    0.243605
  16 O :   -0.502496
  17 H :    0.239194
  18 H :    0.210273
  19 O :   -0.569124
  20 H :    0.370300
Sum of atomic charges:    0.0000000

--------------------------------
MULLIKEN REDUCED ORBITAL CHARGES
--------------------------------
  0 H s       :     0.653642  s :     0.653642
      pz      :     0.033295  p :     0.102287
      px      :     0.036418
      py      :     0.032573
      dz2     :     0.005222  d :     0.020216
      dxz     :     0.007789
      dyz     :     0.004748
      dx2y2   :     0.001017
      dxy     :     0.001440
  1 O s       :     3.886833  s :     3.886833
      pz      :     1.297131  p :     4.755762
      px      :     1.729569
      py      :     1.729062
      dz2     :     0.002699  d :     0.023660
      dxz     :     0.006055
      dyz     :     0.005774
      dx2y2   :     0.001485
      dxy     :     0.007647
      f0      :    -0.000024  f :     0.000821
      f+1     :     0.000101
      f-1     :     0.000207
      f+2     :     0.000094
      f-2     :     0.000292
      f+3     :     0.000083
      f-3     :     0.000068
  2 H s       :     0.473747  s :     0.473747
      pz      :     0.013389  p :     0.022808
      px      :    -0.017837
      py      :     0.027255
      dz2     :     0.008880  d :     0.025872
      dxz     :     0.001435
      dyz     :    -0.000335
      dx2y2   :     0.012153
      dxy     :     0.003739
  3 H s       :     0.468297  s :     0.468297
      pz      :    -0.029421  p :    -0.019145
      px      :     0.020462
      py      :    -0.010186
      dz2     :     0.015544  d :     0.048794
      dxz     :     0.006006
      dyz     :     0.007466
      dx2y2   :     0.010492
      dxy     :     0.009286
  4 O s       :     4.053683  s :     4.053683
      pz      :     1.598555  p :     4.768615
      px      :     1.798488
      py      :     1.371571
      dz2     :     0.006406  d :     0.043087
      dxz     :     0.005934
      dyz     :     0.017557
      dx2y2   :     0.004752
      dxy     :     0.008437
      f0      :    -0.000009  f :     0.000679
      f+1     :     0.000114
      f-1     :     0.000021
      f+2     :    -0.000046
      f-2     :     0.000325
      f+3     :     0.000159
      f-3     :     0.000115
  5 H s       :     0.519220  s :     0.519220
      pz      :     0.026375  p :     0.098167
      px      :     0.034399
      py      :     0.037393
      dz2     :     0.006158  d :     0.048277
      dxz     :     0.002696
      dyz     :     0.012281
      dx2y2   :     0.012370
      dxy     :     0.014771
  6 H s       :     0.671770  s :     0.671770
      pz      :     0.042735  p :     0.110631
      px      :     0.034357
      py      :     0.033538
      dz2     :     0.008662  d :     0.023809
      dxz     :     0.006824
      dyz     :     0.004208
      dx2y2   :     0.002608
      dxy     :     0.001507
  7 O s       :     3.799502  s :     3.799502
      pz      :     1.584451  p :     4.654115
      px      :     1.592745
      py      :     1.476920
      dz2     :     0.002762  d :     0.011891
      dxz     :     0.003006
      dyz     :     0.004088
      dx2y2   :     0.000670
      dxy     :     0.001366
      f0      :     0.000027  f :     0.000082
      f+1     :     0.000008
      f-1     :    -0.000062
      f+2     :     0.000014
      f-2     :    -0.000026
      f+3     :    -0.000001
      f-3     :     0.000122
  8 H s       :     0.609325  s :     0.609325
      pz      :     0.043214  p :     0.112218
      px      :     0.029856
      py      :     0.039149
      dz2     :     0.001423  d :     0.027769
      dxz     :     0.006484
      dyz     :     0.006606
      dx2y2   :     0.008034
      dxy     :     0.005222
  9 H s       :     0.578047  s :     0.578047
      pz      :     0.025327  p :     0.067484
      px      :     0.006487
      py      :     0.035669
      dz2     :     0.008300  d :     0.021381
      dxz     :     0.001945
      dyz     :     0.004779
      dx2y2   :     0.004910
      dxy     :     0.001448
 10 O s       :     3.878890  s :     3.878890
      pz      :     1.272308  p :     4.702497
      px      :     1.773970
      py      :     1.656218
      dz2     :    -0.000179  d :     0.014916
      dxz     :     0.001886
      dyz     :     0.006094
      dx2y2   :     0.001365
      dxy     :     0.005750
      f0      :     0.000087  f :     0.000799
      f+1     :     0.000040
      f-1     :     0.000230
      f+2     :     0.000058
      f-2     :     0.000279
      f+3     :     0.000075
      f-3     :     0.000031
 11 H s       :     0.623651  s :     0.623651
      pz      :     0.026983  p :     0.096991
      px      :     0.034783
      py      :     0.035226
      dz2     :     0.005219  d :     0.024058
      dxz     :     0.007131
      dyz     :     0.007743
      dx2y2   :     0.001211
      dxy     :     0.002755
 12 H s       :     0.639355  s :     0.639355
      pz      :     0.022652  p :     0.101815
      px      :     0.036250
      py      :     0.042913
      dz2     :     0.005681  d :     0.027059
      dxz     :     0.005728
      dyz     :     0.007831
      dx2y2   :     0.003533
      dxy     :     0.004286
 13 O s       :     3.815836  s :     3.815836
      pz      :     1.474527  p :     4.570975
      px      :     1.372450
      py      :     1.723998
      dz2     :     0.001493  d :    -0.000008
      dxz     :     0.001758
      dyz     :     0.001662
      dx2y2   :    -0.001723
      dxy     :    -0.003199
      f0      :    -0.000014  f :     0.000228
      f+1     :     0.000162
      f-1     :    -0.000066
      f+2     :    -0.000025
      f-2     :     0.000060
      f+3     :    -0.000022
      f-3     :     0.000133
 14 H s       :     0.682834  s :     0.682834
      pz      :     0.029410  p :     0.102651
      px      :     0.025710
      py      :     0.047530
      dz2     :     0.001401  d :     0.025864
      dxz     :     0.006743
      dyz     :     0.002419
      dx2y2   :     0.009674
      dxy     :     0.005627
 15 H s       :     0.636967  s :     0.636967
      pz      :     0.034588  p :     0.100690
      px      :     0.032459
      py      :     0.033642
      dz2     :     0.007857  d :     0.018738
      dxz     :     0.002820
      dyz     :     0.001858
      dx2y2   :     0.004454
      dxy     :     0.001748
 16 O s       :     3.834499  s :     3.834499
      pz      :     1.593834  p :     4.655390
      px      :     1.530634
      py      :     1.530922
      dz2     :     0.000660  d :     0.011466
      dxz     :     0.003578
      dyz     :     0.002089
      dx2y2   :     0.001707
      dxy     :     0.003432
      f0      :     0.000283  f :     0.001141
      f+1     :     0.000005
      f-1     :     0.000173
      f+2     :     0.000110
      f-2     :     0.000385
      f+3     :     0.000046
      f-3     :     0.000139
 17 H s       :     0.632168  s :     0.632168
      pz      :     0.036843  p :     0.104953
      px      :     0.028450
      py      :     0.039660
      dz2     :     0.004825  d :     0.023685
      dxz     :     0.004070
      dyz     :     0.002940
      dx2y2   :     0.007048
      dxy     :     0.004802
 18 H s       :     0.652470  s :     0.652470
      pz      :     0.044318  p :     0.117910
      px      :     0.038777
      py      :     0.034815
      dz2     :     0.007442  d :     0.019347
      dxz     :     0.003588
      dyz     :     0.001174
      dx2y2   :     0.003088
      dxy     :     0.004056
 19 O s       :     3.884717  s :     3.884717
      pz      :     1.616861  p :     4.668965
      px      :     1.641330
      py      :     1.410775
      dz2     :     0.002677  d :     0.014091
      dxz     :     0.001757
      dyz     :     0.002460
      dx2y2   :     0.000847
      dxy     :     0.006351
      f0      :     0.000063  f :     0.001351
      f+1     :     0.000207
      f-1     :     0.000304
      f+2     :     0.000123
      f-2     :     0.000283
      f+3     :     0.000182
      f-3     :     0.000189
 20 H s       :     0.556360  s :     0.556360
      pz      :     0.037377  p :     0.052525
      px      :     0.007613
      py      :     0.007535
      dz2     :    -0.000877  d :     0.020815
      dxz     :     0.006032
      dyz     :     0.008293
      dx2y2   :     0.008405
      dxy     :    -0.001038


                     *******************************
                     * LOEWDIN POPULATION ANALYSIS *
                     *******************************

----------------------
LOEWDIN ATOMIC CHARGES
----------------------
   0 H :   -0.477990
   1 O :    0.987750
   2 H :   -0.697433
   3 H :   -0.676561
   4 O :    1.081792
   5 H :   -0.706375
   6 H :   -0.427603
   7 O :    1.038647
   8 H :   -0.410032
   9 H :   -0.497089
  10 O :    1.001483
  11 H :   -0.471192
  12 H :   -0.390604
  13 O :    1.100577
  14 H :   -0.416678
  15 H :   -0.492663
  16 O :    0.996661
  17 H :   -0.481532
  18 H :   -0.482734
  19 O :    1.022364
  20 H :   -0.600789

-------------------------------
LOEWDIN REDUCED ORBITAL CHARGES
-------------------------------
  0 H s       :     0.569010  s :     0.569010
      pz      :     0.207359  p :     0.539442
      px      :     0.153382
      py      :     0.178700
      dz2     :     0.114471  d :     0.369539
      dxz     :     0.094688
      dyz     :     0.099568
      dx2y2   :     0.033833
      dxy     :     0.026978
  1 O s       :     3.002524  s :     3.002524
      pz      :     1.174342  p :     3.919705
      px      :     1.374902
      py      :     1.370461
      dz2     :     0.020282  d :     0.076327
      dxz     :     0.017631
      dyz     :     0.024132
      dx2y2   :     0.008071
      dxy     :     0.006212
      f0      :     0.001233  f :     0.013693
      f+1     :     0.001508
      f-1     :     0.004687
      f+2     :     0.000818
      f-2     :     0.004494
      f+3     :     0.000282
      f-3     :     0.000670
  2 H s       :     0.547526  s :     0.547526
      pz      :     0.189830  p :     0.631404
      px      :     0.241488
      py      :     0.200086
      dz2     :     0.122416  d :     0.518504
      dxz     :     0.104344
      dyz     :     0.075273
      dx2y2   :     0.123682
      dxy     :     0.092789
  3 H s       :     0.536640  s :     0.536640
      pz      :     0.252954  p :     0.619214
      px      :     0.163232
      py      :     0.203028
      dz2     :     0.136386  d :     0.520708
      dxz     :     0.089256
      dyz     :     0.134383
      dx2y2   :     0.081649
      dxy     :     0.079034
  4 O s       :     2.961266  s :     2.961266
      pz      :     1.329390  p :     3.849348
      px      :     1.347268
      py      :     1.172691
      dz2     :     0.009201  d :     0.092442
      dxz     :     0.009493
      dyz     :     0.032241
      dx2y2   :     0.020608
      dxy     :     0.020899
      f0      :     0.001535  f :     0.015153
      f+1     :     0.000651
      f-1     :     0.002481
      f+2     :     0.002696
      f-2     :     0.003978
      f+3     :     0.003099
      f-3     :     0.000712
  5 H s       :     0.524313  s :     0.524313
      pz      :     0.168548  p :     0.634629
      px      :     0.180064
      py      :     0.286017
      dz2     :     0.070968  d :     0.547433
      dxz     :     0.041488
      dyz     :     0.143473
      dx2y2   :     0.149760
      dxy     :     0.141745
  6 H s       :     0.551924  s :     0.551924
      pz      :     0.192071  p :     0.514265
      px      :     0.137003
      py      :     0.185190
      dz2     :     0.101023  d :     0.361414
      dxz     :     0.058472
      dyz     :     0.090726
      dx2y2   :     0.044913
      dxy     :     0.066280
  7 O s       :     2.970350  s :     2.970350
      pz      :     1.314112  p :     3.878398
      px      :     1.313229
      py      :     1.251057
      dz2     :     0.015564  d :     0.095150
      dxz     :     0.006903
      dyz     :     0.037880
      dx2y2   :     0.008936
      dxy     :     0.025868
      f0      :     0.000896  f :     0.017455
      f+1     :     0.001901
      f-1     :     0.004862
      f+2     :     0.003745
      f-2     :     0.002023
      f+3     :     0.000409
      f-3     :     0.003619
  8 H s       :     0.540356  s :     0.540356
      pz      :     0.133568  p :     0.503642
      px      :     0.215478
      py      :     0.154596
      dz2     :     0.032553  d :     0.366033
      dxz     :     0.077022
      dyz     :     0.047168
      dx2y2   :     0.120033
      dxy     :     0.089257
  9 H s       :     0.570543  s :     0.570543
      pz      :     0.163109  p :     0.544536
      px      :     0.196407
      py      :     0.185019
[...]
Aux. functions:    1386 (392 shells)
Use SHARK:           on

Processing maps (0.0 sec)
Average map sizes:
   Aux shells -> MOs              27.9
   Aux shells -> PAOs            644.0
   MOs        -> AO shells       220.0
   PAOs       -> AO shells       224.0

Calculating integrals (1.5 sec, 189.788 MB)
Sorting integrals (0.5 sec, 189.773 MB)
Total time for the integral transformation: 2.0 sec
--------------------------------
INITIAL GUESS AND PNO GENERATION
--------------------------------

PNO truncation parameters                   .... 
    ScaleTCutPNO       =        1.000e-02
    PAOOverlapThresh   =        1.000e-08

    TCutPairs          =        1.000e-05
    TCutPNO            =        1.000e-07
    TCutPNOSingles     =        3.000e-09
    TCutMP2Pairs       =        1.000e-06
    TCutMKN            =        1.000e-03
    TCutDO             =        5.000e-03

Pair selection                          .... not used
Type of local MP2 treatment                 .... full local PMP2
Strategy for PNO selection                  .... occupation number selection
Pair density normalization                  .... MP2 norm
Spin component scaling                      .... not used

PASS-1: Formation of initial guess LMP2 amplitudes
Initial amplitudes guess done. Entering LMP2 iteration loop:
   Max. no of iterations          ...  50
   Energy convergence tolerance   ...    1.0e-07
   Residual convergence tolerance ...    5.0e-07
   Fock matrix cutoff             ...    1.0e-05 Eh
   DIIS convergence acceleration parameters:
        Max # vectors in DIIS     ... 7
        Start iteration of DIIS   ... 0
        Levelshift                ... 2.000e-01
        Damping factor 1          ... 5.000e-01
        Damping factor 2          ... 1.000e+00
   L-MP2 PNO cut-off              ...   1.0e-09
   L-MP2 PNO cut-off (core)       ...   1.0e-11
                           *** Turning on DIIS ***
LMP2-Iter=   0:  ELMP2= -1.883124284817  DE=   3.6e-02 RMAX=   5.4e-03
LMP2-Iter=   1:  ELMP2= -1.901854187811  DE=   1.9e-02 RMAX=   2.2e-03
LMP2-Iter=   2:  ELMP2= -1.904534091323  DE=   2.7e-03 RMAX=   4.4e-04
LMP2-Iter=   3:  ELMP2= -1.904874200486  DE=   3.4e-04 RMAX=   1.4e-04
LMP2-Iter=   4:  ELMP2= -1.904900172132  DE=   2.6e-05 RMAX=   1.8e-05
LMP2-Iter=   5:  ELMP2= -1.904899740806  DE=   4.3e-07 RMAX=   5.8e-06
LMP2-Iter=   6:  ELMP2= -1.904899625756  DE=   1.2e-07 RMAX=   5.4e-07
LMP2-Iter=   7:  ELMP2= -1.904899596958  DE=   2.9e-08 RMAX=   2.0e-07
LMP2-Iter=   8:  ELMP2= -1.904899605893  DE=   8.9e-09 RMAX=   2.8e-08 => CONVERGED
PASS-2: Formation of Pair natural orbitals
   .... Finished loop over pairs

 PNO Occupation Number Statistics: 
  | Av. % of trace(Dij) retained        ...  97.707743186122
  | sigma^2 in % of trace(Dij) retained ...   1.66e+01
  | Av. % of trace(Di) retained         ...  99.999792662795
  | sigma^2 in % of trace(Di) retained  ...   4.36e-09
 Distributions of % trace(Dij) recovered:
  |       >= 99.9  ...    72 ( 18.6 % of all pairs)
  |   [60.0, 70.0) ...     1 (  0.3 % of all pairs)
  |   [70.0, 80.0) ...     2 (  0.5 % of all pairs)
  |   [80.0, 90.0) ...    25 (  6.5 % of all pairs)
  |   [90.0, 99.0) ...   216 ( 55.8 % of all pairs)
  |   [99.0, 99.9) ...    71 ( 18.3 % of all pairs)
 Distributions of % trace(Di) recovered :
  |       >= 99.9  ...    28 (100.0 % of all I-pairs )

Making pair pair interaction lists          ... done

                       ===========================
                        300 OF  387 PAIRS ARE KEPT
                       ===========================

Total time spent in the initial guess                 ...    37.500 sec
L-MP2 correlation energy (all non-screened pairs)     ...      -1.904899605893 Eh
L-MP2 PNO error correction                            ...      -0.000031784830 Eh
                                                          --------------------
Initial total L-MP2 energy (non-screened pairs)       ...      -1.904931390723 Eh

Initial PNO correlation energy                        ...      -1.903688076558 Eh
sum of pair energies estimated for screened out pairs ...      -0.000015853808 Eh
sum of MP2 pair energies for pairs that were not kept ...      -0.000351867552 Eh
sum of PNO error estimates for the kept pairs         ...      -0.000934624596 Eh
                                                          --------------------
sum of all corrections                                         -0.001302345955
Initial total correlation energy                               -1.904990422513
Thresholds for map construction and integral transformation for fine MP2 and CCSD(T) calculation:
   TCutMKN   ...     1.0e-03
   TCutDO    ...     5.0e-03
   TCutPairs ...     1.0e-05
   TCutCMO   ...     1.0e-03
   TCutCPAO  ...     1.0e-03

Time for aux screen maps:            0.009
Time for maps after fine MP2:            0.047
-----------------------------
LOCAL RI TRANSFORMATION (IJV)
-----------------------------

Orbital window:       7 to 34
Basis functions:    644 (224 shells)
Aux. functions:    1386 (392 shells)
Use SHARK:           on

Processing maps (0.0 sec)
Average map sizes:
   Aux shells -> MOs(i)           27.1
   Aux shells -> MOs(j)           28.0
   MOs        -> AO shells       220.0

Calculating integrals (1.2 sec, 8.064 MB)
Sorting integrals (0.1 sec, 8.049 MB)
Total time for the integral transformation: 1.3 sec
--------------------------------
LOCAL RI TRANSFORMATION (VABPAO)
--------------------------------

Number of PAOs:     644
Basis functions:    644 (224 shells)
Aux. functions:    1386 (392 shells)
Use SHARK:           on

Processing maps (0.0 sec)
Average map sizes:
   Aux shells -> PAOs            644.0
   PAOs       -> AO shells       224.0

Calculating integrals (4.4 sec, 4385.576 MB)
Finished


-------------------------------------
Pair Pair Term precalculation with     
RI-(ij|mn) and (im|jn) transformation  
ON THE FLY                             
-------------------------------------

   IBatch   1 (of   2)              ... done (   66.634 sec)
   IBatch   2 (of   2)              ... done (    2.637 sec)
Total EXT                           ...          69.271 sec

---------------------
RI-PNO TRANSFORMATION
---------------------

Total Number of PNOs                   ...  7604
Average number of PNOs per pair        ...    25
Maximal number of PNOs per pair        ...    71
   #pairs with  1 -  5 PNOs   :    0
   #pairs with  6 - 10 PNOs   :  116
   #pairs with 11 - 15 PNOs   :   45
   #pairs with 16 - 20 PNOs   :   31
   #pairs with 21 - 25 PNOs   :   13
   #pairs with 26 - 30 PNOs   :   11
   #pairs with 31 - 35 PNOs   :    4
   #pairs with 36 - 40 PNOs   :    7
   #pairs with 41 - 45 PNOs   :    0
   #pairs with 46 - 50 PNOs   :    2
   #pairs with 51 - 55 PNOs   :    6
   #pairs with 56 - 60 PNOs   :   21
   #pairs with 61 - 65 PNOs   :   21
   #pairs with 66 - 70 PNOs   :   21
   #pairs with 71 - 75 PNOs   :    2

Generation of (ij|ab)[P] integrals            ... on
Generation of (ia|bc)[P],(ja|bc)[P] integrals ... on
Storage of 3 and 4 external integrals         ... on
Generation of ALL (ka|bc)[P] integrals        ... on
Keep RI integrals in memory                   ... off

Ibatch:  1 (of  1)
Starting 2-4 index PNO integral generation ... done

Timings:
Total PNO integral transformation time     ...         68.561 sec
Size of the 3-external file                ...       149 MB
Size of the 4-external file                ...      1157 MB
Size of the IKJL file                      ...         0 MB
Size of the all 3-external file            ...      2086 MB
Size of the 1-external file                ...         4 MB

Making pair/pair overlap matrices          ... done (   10.176 sec)
Size of the pair overlap file              ... 377 MB
Redoing the guess amplitudes               ... done (    0.025 sec)

-------------------------
FINAL STARTUP INFORMATION
-------------------------

E(0)                                       ...   -532.603581128
E(L-MP2)                                   ...     -1.904931391
E(L-MP2) including corrections             ...     -1.904990423
Initial E(tot)                             ...   -534.508571550
<T|T>                                      ...      0.408672472
Number of pairs included                   ... 300
Total number of pairs                      ... 406

------------------------------------------------
                  RHF COUPLED CLUSTER ITERATIONS
------------------------------------------------

Number of PNO amplitudes to be optimized   ...       339180
Number of non-PNO amplitudes               ...    111264300
Untruncated number of regular amplitudes   ...    150577686

Iter       E(tot)           E(Corr)          Delta-E          Residual     Time
  0   -534.450275090     -1.845391616      0.059539775      0.015207537   18.75
                           *** Turning on DIIS ***
  1   -534.489102643     -1.884219169     -0.038827554      0.007882885   18.79
  2   -534.528291866     -1.923408392     -0.039189223      0.002489182   18.22
  3   -534.535762712     -1.930879238     -0.007470846      0.001107637   18.51
  4   -534.537762465     -1.932878992     -0.001999754      0.000486336   18.72
  5   -534.538200211     -1.933316737     -0.000437746      0.000190705   19.88
  6   -534.538292069     -1.933408595     -0.000091858      0.000060336   20.18
  7   -534.538302127     -1.933418653     -0.000010058      0.000027144   19.06
  8   -534.538307062     -1.933423588     -0.000004935      0.000011603   19.10
               --- The Coupled-Cluster iterations have converged ---

----------------------
COUPLED CLUSTER ENERGY
----------------------

E(0)                                       ...   -532.603581128
E(CORR)(strong-pairs)                      ...     -1.933423588
E(CORR)(weak-pairs)                        ...     -0.001302346
E(CORR)(corrected)                         ...     -1.934725934
E(TOT)                                     ...   -534.538307062
Singles Norm <S|S>**1/2                    ...      0.073173077  
T1 diagnostic                              ...      0.009778164  

------------------
LARGEST AMPLITUDES
------------------
  26-> 35  26-> 35       0.038519
  21-> 35  21-> 35       0.037818
  25-> 35  25-> 35       0.037720
  27-> 35  27-> 35       0.036717
  29-> 35  29-> 35       0.036590
  33-> 35  33-> 35       0.035564
  31-> 35  31-> 35       0.034849
  30-> 35  30-> 35       0.034658
  32-> 35  32-> 35       0.033175
  22-> 36  22-> 36       0.033147
  31-> 42  31-> 42       0.032480
  34-> 35  34-> 35       0.032091
  33-> 42  33-> 42       0.031824
  28-> 35  28-> 35       0.030624
  33-> 35  33-> 42       0.030339
  33-> 42  33-> 35       0.030339


-------------------------------------------
DLPNO BASED TRIPLES CORRECTION
-------------------------------------------

Singles multiplier          ...  1.000000
TCutTNO                     ... 1.000e-09
TCutMP2Pairs                ... 1.000e-06
TCutDOStrong                ... 1.000e-02
TCutMKNStrong               ... 1.000e-02
TCutDOWeak                  ... 2.000e-02
TCutMKNWeak                 ... 1.000e-01

Fragment selection                          .... not used
Fock matrix occ-virt block is zero --> Setting DT_in_Triples to false.
Number of Triples that are to be computed   ...      2858

 . . . . . . . . .
10% done  
20% done  
30% done  
40% done  
50% done  
60% done  
70% done  
80% done  
90% done               (    355.090 sec)
Triples timings:
Total time for T0               ...   399.654 sec
Total time for Iterative (T)    ...     0.000 sec
Total time of overall (T)       ...   416.855 sec

Triples List generation         ...     0.000 sec
TNO generation                  ...    44.476 sec
Pair density generation         ...     0.006 sec
Look up tables                  ...     0.000 sec
Generating 3-index integrals    ...   311.159 sec
  Make 4-ind.int. from 3-ind.int...     6.064 sec
  Projecting amplitudes (D + S) ...    32.689 sec
  Downprojecting integrals      ...     0.001 sec
  Energy contr. (sum over a,b,c)...     1.182 sec
Fitting ET(->0)                 ...     0.000 sec

Everything after 3-index        ...    43.931 sec

Timing details:
 TNO integrals                  ...   316.426 sec
   Reading 3-index integrals    ...     2.995 sec
   Sorting integrals            ...    38.599 sec
       Sorting integrals 1      ...     0.001 sec
       Sorting integrals 2      ...    36.379 sec
       Sorting integrals 3      ...     0.189 sec
       Sorting integrals 4      ...     0.022 sec
       Sorting integrals 5      ...     0.253 sec
       Sorting integrals 6      ...     1.756 sec
   Calculating local VM**-1/2   ...     0.676 sec
   Orthogonal. integrals        ...     0.886 sec
   Multipl. 3-index integrals   ...   273.269 sec
   All concerning IRIab (w/TNO) ...     2.508 sec

 Calculate W0/W1                ...     3.992 sec
 W 3-ext contribution           ...     1.956 sec
 W 3-int contribution           ...     0.755 sec
 Sorting W                      ...     1.170 sec

 V exchange contribution        ...     0.313 sec

 Timings for Triples without generation
     of 3-index integrals       ...    43.930 sec
       0 weak pairs             ...    36.471 sec
       1 weak pair              ...     7.459 sec
       2 weak pairs             ...     0.000 sec
       3 weak pairs             ...     0.000 sec
  Extra time for extrapolation  ...     0.000 sec

Number of Triples   (0, 1, 2, 3 weak pairs; overall):   1949     909       0       0  (  2858)
Number of Atoms     (0, 1, 2, 3 weak pairs; overall):   20.2    19.4     0.0     0.0  (    21)
Number of PAOs      (0, 1, 2, 3 weak pairs; overall):  618.9   600.2     0.0     0.0  (   644)
Number of AuxFcns   (0, 1, 2, 3 weak pairs; overall):  429.0   378.2     0.0     0.0  (  1386)
Number of TNOs      (0, 1, 2, 3 weak pairs         ):   68.3    34.2     0.0     0.0
Aver. Number of NTNO, Atoms, PAOs, AuxFcns / Triples:   2858    57.5    19.9   612.9   412.8

Triples Correction (T)                     ...     -0.061518462
Final correlation energy                   ...     -1.996244395
E(CCSD)                                    ...   -534.538307062
E(CCSD(T))                                 ...   -534.599825523



------------------------------------------------------------------------------- 
                                     TIMINGS                                   
------------------------------------------------------------------------------- 


Total execution time                   ...      830.555 sec

Localization of occupied MO's          ...        1.445 sec (  0.2%)
Fock Matrix Formation                  ...       25.291 sec (  3.0%)
Global overlap, Fock, MKN matrices     ...        0.974 sec (  0.1%)
Differential overlap integrals         ...        0.996 sec (  0.1%)
Organizing maps                        ...        0.191 sec (  0.0%)
RI 3-index integral generations        ...       10.044 sec (  1.2%)
RI-PNO integral transformation         ...      155.391 sec ( 18.7%)
Initial Guess                          ...       46.314 sec (  5.6%)
DIIS Solver                            ...        3.396 sec (  0.4%)
State Vector Update                    ...        0.033 sec (  0.0%)
Sigma-vector construction              ...      170.360 sec ( 20.5%)
  <D|H|D>(0-ext)                       ...       11.377 sec (  6.7% of sigma)
  <D|H|D>(2-ext Fock)                  ...        0.005 sec (  0.0% of sigma)
  <D|H|D>(2-ext)                       ...       28.378 sec ( 16.7% of sigma)
  <D|H|D>(4-ext)                       ...        8.263 sec (  4.9% of sigma)
  <D|H|D>(4-ext-corr)                  ...       29.716 sec ( 17.4% of sigma)
  CCSD doubles correction              ...        1.298 sec (  0.8% of sigma)
  <S|H|S>                              ...        5.377 sec (  3.2% of sigma)
  <S|H|D>(1-ext)                       ...        0.273 sec (  0.2% of sigma)
  <D|H|S>(1-ext)                       ...        0.005 sec (  0.0% of sigma)
  <S|H|D>(3-ext)                       ...        0.180 sec (  0.1% of sigma)
  Fock-dressing                        ...       34.066 sec ( 20.0% of sigma)
  Singles amplitudes                   ...        5.259 sec (  3.1% of sigma)
  (ik|jl)-dressing                     ...       27.380 sec ( 16.1% of sigma)
  (ij|ab),(ia|jb)-dressing             ...       14.824 sec (  8.7% of sigma)
  Pair energies                        ...        0.008 sec (  0.0% of sigma)
  Shift terms                          ...        0.021 sec (  0.0% of sigma)
Total Time for computing (T)           ...      417.088 sec ( 50.2% of ALL)


Maximum memory used throughout the entire MDCI-calculation: 1968.0 MB

-------------------------   --------------------
FINAL SINGLE POINT ENERGY      -534.599825523384
-------------------------   --------------------



--------------------------------------   --------------------
FINAL SINGLE POINT ENERGY (QM/QM2)    -1517.287671058554
--------------------------------------   --------------------


                            ***************************************
                            *     ORCA property calculations      *
                            ***************************************


  WARNING: The energy has been calculated at the MDCI level but the densities
           used in the property calculations are still SCF densities
           MDCI response densities have not been calculated 
           use %mdci Density linearized end
           or  %mdci Density unrelaxed end
           or  %mdci Density orbopt end

                                    ---------------------
                                    Active property flags
                                    ---------------------
   (+) Dipole Moment


------------------------------------------------------------------------------
                       ORCA ELECTRIC PROPERTIES CALCULATION
------------------------------------------------------------------------------

Dipole Moment Calculation                       ... on
Quadrupole Moment Calculation                   ... off
Polarizability Calculation                      ... off
GBWName                                         ... surf_def.gbw
Electron density                                ... surf_def.scfp
The origin for moment calculation is the CENTER OF MASS  = ( 7.878708, -4.995663 10.722452)

-------------
DIPOLE MOMENT
-------------
                                X             Y             Z
Electronic contribution:      0.15245      -0.14017       0.28216
Nuclear contribution   :      0.93373       0.73455      -1.65967
                        -----------------------------------------
Total Dipole Moment    :      1.08618       0.59438      -1.37751
                        -----------------------------------------
Magnitude (a.u.)       :      1.85219
Magnitude (Debye)      :      4.70789



--------------------
Rotational spectrum 
--------------------
 
Rotational constants in cm-1:     0.037182     0.030028     0.019548 
Rotational constants in MHz :  1114.699146   900.218288   586.044078 

 Dipole components along the rotational axes: 
x,y,z [a.u.] :     0.508193     0.861882    -1.558687 
x,y,z [Debye]:     1.291723     2.190729    -3.961868 

 

Timings for individual modules:

Sum of individual times         ...     1017.986 sec (=  16.966 min)
GTO integral calculation        ...        3.216 sec (=   0.054 min)   0.3 %
SCF iterations                  ...      169.175 sec (=   2.820 min)  16.6 %
MDCI module                     ...      833.608 sec (=  13.893 min)  81.9 %
XTB module                      ...        5.994 sec (=   0.100 min)   0.6 %
ONIOM_Small energy and gradient ...        0.356 sec (=   0.006 min)   0.0 %
ONIOM_Large energy and gradient ...        5.638 sec (=   0.094 min)   0.6 %
                             ****ORCA TERMINATED NORMALLY****
TOTAL RUN TIME: 0 days 0 hours 17 minutes 2 seconds 157 msec
