 Entering Gaussian System, Link 0=g16
 Input=CP_grain_mol46.com
 Output=CP_grain_mol46.log
 Initial command:
 /home/spantaleone/g16/l1.exe "/scratch/cnt0027/pag0797/spantaleone/GAUSSIAN/gauss_scratch/CP_grain_mol46/Gau-435.inp" -scrdir="/scratch/cnt0027/pag0797/spantaleone/GAUSSIAN/gauss_scratch/CP_grain_mol46/"
 Entering Link 1 = /home/spantaleone/g16/l1.exe PID=       436.
  
 Copyright (c) 1988-2017, Gaussian, Inc.  All Rights Reserved.
  
 This is part of the Gaussian(R) 16 program.  It is based on
 the Gaussian(R) 09 system (copyright 2009, Gaussian, Inc.),
 the Gaussian(R) 03 system (copyright 2003, Gaussian, Inc.),
 the Gaussian(R) 98 system (copyright 1998, Gaussian, Inc.),
 the Gaussian(R) 94 system (copyright 1995, Gaussian, Inc.),
 the Gaussian 92(TM) system (copyright 1992, Gaussian, Inc.),
 the Gaussian 90(TM) system (copyright 1990, Gaussian, Inc.),
 the Gaussian 88(TM) system (copyright 1988, Gaussian, Inc.),
 the Gaussian 86(TM) system (copyright 1986, Carnegie Mellon
 University), and the Gaussian 82(TM) system (copyright 1983,
 Carnegie Mellon University). Gaussian is a federally registered
 trademark of Gaussian, Inc.
  
 This software contains proprietary and confidential information,
 including trade secrets, belonging to Gaussian, Inc.
  
 This software is provided under written license and may be
 used, copied, transmitted, or stored only in accord with that
 written license.
  
 The following legend is applicable only to US Government
 contracts under FAR:
  
                    RESTRICTED RIGHTS LEGEND
  
 Use, reproduction and disclosure by the US Government is
 subject to restrictions as set forth in subparagraphs (a)
 and (c) of the Commercial Computer Software - Restricted
 Rights clause in FAR 52.227-19.
  
 Gaussian, Inc.
 340 Quinnipiac St., Bldg. 40, Wallingford CT 06492
  
  
 ---------------------------------------------------------------
 Warning -- This program may not be used in any manner that
 competes with the business of Gaussian, Inc. or will provide
 assistance to any competitor of Gaussian, Inc.  The licensee
 of this program is prohibited from giving any competitor of
 Gaussian, Inc. access to this program.  By using this program,
 the user acknowledges that Gaussian, Inc. is engaged in the
 business of creating and licensing software in the field of
 computational chemistry and represents and warrants to the
 licensee that it is not a competitor of Gaussian, Inc. and that
 it will not use this program in any manner prohibited above.
 ---------------------------------------------------------------
  

 Cite this work as:
 Gaussian 16, Revision B.01,
 M. J. Frisch, G. W. Trucks, H. B. Schlegel, G. E. Scuseria, 
 M. A. Robb, J. R. Cheeseman, G. Scalmani, V. Barone, 
 G. A. Petersson, H. Nakatsuji, X. Li, M. Caricato, A. V. Marenich, 
 J. Bloino, B. G. Janesko, R. Gomperts, B. Mennucci, H. P. Hratchian, 
 J. V. Ortiz, A. F. Izmaylov, J. L. Sonnenberg, D. Williams-Young, 
 F. Ding, F. Lipparini, F. Egidi, J. Goings, B. Peng, A. Petrone, 
 T. Henderson, D. Ranasinghe, V. G. Zakrzewski, J. Gao, N. Rega, 
 G. Zheng, W. Liang, M. Hada, M. Ehara, K. Toyota, R. Fukuda, 
 J. Hasegawa, M. Ishida, T. Nakajima, Y. Honda, O. Kitao, H. Nakai, 
 T. Vreven, K. Throssell, J. A. Montgomery, Jr., J. E. Peralta, 
 F. Ogliaro, M. J. Bearpark, J. J. Heyd, E. N. Brothers, K. N. Kudin, 
 V. N. Staroverov, T. A. Keith, R. Kobayashi, J. Normand, 
 K. Raghavachari, A. P. Rendell, J. C. Burant, S. S. Iyengar, 
 J. Tomasi, M. Cossi, J. M. Millam, M. Klene, C. Adamo, R. Cammi, 
 J. W. Ochterski, R. L. Martin, K. Morokuma, O. Farkas, 
 J. B. Foresman, and D. J. Fox, Gaussian, Inc., Wallingford CT, 2016.
 
 ******************************************
 Gaussian 16:  ES64L-G16RevB.01 20-Dec-2017
                23-Jan-2021 
 ******************************************
 %nosave
 %nproc=24
 Will use up to   24 processors via shared memory.
 %mem=24gb
 %chk=input
 -----------------------------------
 #P B97D3/aug-cc-pvtz Counterpoise=2
 -----------------------------------
 1/38=1,62=2,172=1/1;
 2/12=2,17=6,18=5,40=1/2;
 1/38=1,53=2,62=2,63=1/22;
 3/5=16,6=1,7=10,11=2,25=1,30=1,74=-59/1,2,3;
 4//1;
 5/5=2,38=5/2;
 6/7=2,8=2,9=2,10=2,28=1/1;
 1/53=2,62=2,63=1/22;
 3/5=7,6=11,7=10,11=2,25=1,30=1,74=-59,82=7/1,2,3;
 4//1;
 5/5=2,38=5/2;
 6/7=2,8=2,9=2,10=2,28=1/1;
 1/53=2,62=2,63=1/22(-4);
 99/5=1,9=1/99;
 Leave Link    1 at Sat Jan 23 22:50:13 2021, MaxMem=  3221225472 cpu:               1.2 elap:               0.1
 (Enter /home/spantaleone/g16/l101.exe)
 -----
 Title
 -----
 Symbolic Z-matrix:
 Charge =  0 Multiplicity = 1 in supermolecule
 Charge =  0 Multiplicity = 1 in fragment      1.
 Charge =  0 Multiplicity = 1 in fragment      2.
 H(Fragment=1)         1.65022  -6.65693  -3.05867 
 O(Fragment=1)         1.42248  -6.83965  -3.99948 
 H(Fragment=1)         2.296    -7.00572  -4.39873 
 H(Fragment=1)         2.67984  -5.76298  -1.43216 
 O(Fragment=1)         1.85481  -6.28904  -1.34659 
 H(Fragment=1)         1.13228  -5.60524  -1.26781 
 H(Fragment=1)        -0.24858  -7.54213  -3.27888 
 O(Fragment=1)        -0.95705  -7.71772  -2.63337 
 H(Fragment=1)        -0.49817  -7.81938  -1.789 
 H(Fragment=1)         0.64687  -8.05412   0.82792 
 O(Fragment=1)        -0.24591  -8.35356   0.54405 
 H(Fragment=1)        -0.73123  -8.38079   1.40027 
 H(Fragment=1)         3.06167  -7.43659   1.10218 
 O(Fragment=1)         2.14991  -7.11055   1.11379 
 H(Fragment=1)         2.05252  -6.78158   0.17169 
 H(Fragment=1)         4.1924   -7.9722   -0.95794 
 O(Fragment=1)         4.66121  -7.43429  -0.27752 
 H(Fragment=1)         5.09853  -6.76149  -0.83242 
 H(Fragment=1)        -1.30802  -6.92873   0.24384 
 O(Fragment=1)        -1.91277  -6.17797   0.05484 
 H(Fragment=1)        -2.51373  -6.50944  -0.62837 
 H(Fragment=1)         2.654    -9.31788  -2.16629 
 O(Fragment=1)         3.58813  -8.99573  -2.3203 
 H(Fragment=1)         3.54785  -8.41821  -3.09533 
 N(Fragment=2)         1.10511  -10.12456  -1.73135 
 H(Fragment=2)         0.39318  -10.00359  -2.44701 
 H(Fragment=2)         0.6815   -9.82178  -0.85433 
 H(Fragment=2)         1.28522  -11.12088  -1.65133 
 
 ITRead=  0  0  0  0  0  0  0  0  0  0  0  0  0  0  0  0  0  0  0  0
 ITRead=  0  0  0  0  0  0  0  0
 MicOpt= -1 -1 -1 -1 -1 -1 -1 -1 -1 -1 -1 -1 -1 -1 -1 -1 -1 -1 -1 -1
 MicOpt= -1 -1 -1 -1 -1 -1 -1 -1
 NAtoms=     28 NQM=       28 NQMF=       0 NMMI=      0 NMMIF=      0
                NMic=       0 NMicF=      0.
                    Isotopes and Nuclear Properties:
 (Nuclear quadrupole moments (NQMom) in fm**2, nuclear magnetic moments (NMagM)
  in nuclear magnetons)

  Atom         1           2           3           4           5           6           7           8           9          10
 IAtWgt=           1          16           1           1          16           1           1          16           1           1
 AtmWgt=   1.0078250  15.9949146   1.0078250   1.0078250  15.9949146   1.0078250   1.0078250  15.9949146   1.0078250   1.0078250
 NucSpn=           1           0           1           1           0           1           1           0           1           1
 AtZEff=  -0.0000000  -0.0000000  -0.0000000  -0.0000000  -0.0000000  -0.0000000  -0.0000000  -0.0000000  -0.0000000  -0.0000000
 NQMom=    0.0000000   0.0000000   0.0000000   0.0000000   0.0000000   0.0000000   0.0000000   0.0000000   0.0000000   0.0000000
 NMagM=    2.7928460   0.0000000   2.7928460   2.7928460   0.0000000   2.7928460   2.7928460   0.0000000   2.7928460   2.7928460
 AtZNuc=   1.0000000   8.0000000   1.0000000   1.0000000   8.0000000   1.0000000   1.0000000   8.0000000   1.0000000   1.0000000

  Atom        11          12          13          14          15          16          17          18          19          20
 IAtWgt=          16           1           1          16           1           1          16           1           1          16
 AtmWgt=  15.9949146   1.0078250   1.0078250  15.9949146   1.0078250   1.0078250  15.9949146   1.0078250   1.0078250  15.9949146
 NucSpn=           0           1           1           0           1           1           0           1           1           0
 AtZEff=  -0.0000000  -0.0000000  -0.0000000  -0.0000000  -0.0000000  -0.0000000  -0.0000000  -0.0000000  -0.0000000  -0.0000000
 NQMom=    0.0000000   0.0000000   0.0000000   0.0000000   0.0000000   0.0000000   0.0000000   0.0000000   0.0000000   0.0000000
 NMagM=    0.0000000   2.7928460   2.7928460   0.0000000   2.7928460   2.7928460   0.0000000   2.7928460   2.7928460   0.0000000
 AtZNuc=   8.0000000   1.0000000   1.0000000   8.0000000   1.0000000   1.0000000   8.0000000   1.0000000   1.0000000   8.0000000

  Atom        21          22          23          24          25          26          27          28
 IAtWgt=           1           1          16           1          14           1           1           1
 AtmWgt=   1.0078250   1.0078250  15.9949146   1.0078250  14.0030740   1.0078250   1.0078250   1.0078250
 NucSpn=           1           1           0           1           2           1           1           1
 AtZEff=  -0.0000000  -0.0000000  -0.0000000  -0.0000000  -0.0000000  -0.0000000  -0.0000000  -0.0000000
 NQMom=    0.0000000   0.0000000   0.0000000   0.0000000   2.0440000   0.0000000   0.0000000   0.0000000
 NMagM=    2.7928460   2.7928460   0.0000000   2.7928460   0.4037610   2.7928460   2.7928460   2.7928460
 AtZNuc=   1.0000000   1.0000000   8.0000000   1.0000000   7.0000000   1.0000000   1.0000000   1.0000000
 Leave Link  101 at Sat Jan 23 22:50:13 2021, MaxMem=  3221225472 cpu:               5.4 elap:               0.2
 (Enter /home/spantaleone/g16/l202.exe)
                          Input orientation:                          
 ---------------------------------------------------------------------
 Center     Atomic      Atomic             Coordinates (Angstroms)
 Number     Number       Type             X           Y           Z
 ---------------------------------------------------------------------
      1          1           0        1.650221   -6.656931   -3.058672
      2          8           0        1.422475   -6.839647   -3.999484
      3          1           0        2.295998   -7.005720   -4.398732
      4          1           0        2.679839   -5.762981   -1.432158
      5          8           0        1.854809   -6.289037   -1.346594
      6          1           0        1.132275   -5.605239   -1.267807
      7          1           0       -0.248575   -7.542133   -3.278882
      8          8           0       -0.957049   -7.717724   -2.633367
      9          1           0       -0.498165   -7.819376   -1.789000
     10          1           0        0.646870   -8.054117    0.827916
     11          8           0       -0.245908   -8.353565    0.544045
     12          1           0       -0.731232   -8.380794    1.400274
     13          1           0        3.061673   -7.436594    1.102177
     14          8           0        2.149909   -7.110553    1.113787
     15          1           0        2.052517   -6.781580    0.171690
     16          1           0        4.192398   -7.972204   -0.957937
     17          8           0        4.661208   -7.434286   -0.277521
     18          1           0        5.098528   -6.761492   -0.832419
     19          1           0       -1.308015   -6.928725    0.243842
     20          8           0       -1.912769   -6.177972    0.054838
     21          1           0       -2.513726   -6.509442   -0.628370
     22          1           0        2.654000   -9.317880   -2.166291
     23          8           0        3.588133   -8.995729   -2.320302
     24          1           0        3.547850   -8.418212   -3.095334
     25          7           0        1.105108  -10.124564   -1.731351
     26          1           0        0.393179  -10.003592   -2.447011
     27          1           0        0.681501   -9.821783   -0.854329
     28          1           0        1.285222  -11.120882   -1.651326
 ---------------------------------------------------------------------
                    Distance matrix (angstroms):
                    1          2          3          4          5
     1  H    0.000000
     2  O    0.985079   0.000000
     3  H    1.527888   0.974691   0.000000
     4  H    2.122453   3.054724   3.239181   0.000000
     5  O    1.763069   2.743704   3.166043   0.982207   0.000000
     6  H    2.140449   3.011650   3.621918   1.564240   0.997919
     7  H    2.106538   1.950682   2.831370   3.892477   3.119008
     8  O    2.846757   2.880873   3.769055   4.300102   3.406388
     9  H    2.752982   3.087874   3.908975   3.802079   2.841504
    10  H    4.250224   5.037886   5.580019   3.806600   3.050101
    11  O    4.410606   5.071401   5.719180   4.379098   3.499972
    12  H    5.340901   6.014231   6.684566   5.148885   4.313738
    13  H    4.462369   5.391684   5.570629   3.060985   2.961400
    14  O    4.226686   5.171856   5.515451   2.928927   2.610641
    15  H    3.257701   4.218888   4.582388   2.000851   1.608376
    16  H    3.550450   4.266869   4.045923   2.719078   2.906618
    17  O    4.171945   4.969507   4.770982   2.837652   3.214092
    18  H    4.105844   4.852811   4.542291   2.684542   3.318027
    19  H    4.442030   5.046714   5.877783   4.480057   3.597519
    20  O    4.755864   5.291426   6.183298   4.845144   4.021317
    21  H    4.823544   5.192988   6.131506   5.308144   4.432665
    22  H    2.980699   3.319471   3.233890   3.630004   3.237978
    23  O    3.125807   3.486892   3.154302   3.473393   3.358378
    24  H    2.589295   2.797601   2.293712   3.251130   3.233862
    25  N    3.752787   4.004476   4.273211   4.646795   3.927004
    26  H    3.626903   3.671535   4.051811   4.923568   4.140676
    27  H    3.976661   4.397065   4.806205   4.560824   3.754900
    28  H    4.694753   4.884840   5.050195   5.540767   4.874835
                    6          7          8          9         10
     6  H    0.000000
     7  H    3.114920   0.000000
     8  O    3.269957   0.974401   0.000000
     9  H    2.798639   1.535873   0.966366   0.000000
    10  H    3.259552   4.234352   3.829647   2.866088   0.000000
    11  O    3.568682   3.908094   3.317524   2.406676   0.983516
    12  H    4.277268   4.778160   4.094010   3.246687   1.527572
    13  H    3.562760   5.492045   5.493947   4.601942   2.507554
    14  O    2.995587   5.023398   4.905406   3.992605   1.797543
    15  H    2.074313   4.216623   4.219265   3.380430   2.006446
    16  H    3.881095   5.029313   5.421128   4.766068   3.970737
    17  O    4.096272   5.755499   6.098783   5.389990   4.209643
    18  H    4.154232   5.931787   6.389664   5.775564   4.923906
    19  H    3.160967   3.729379   3.004002   2.362533   2.330070
    20  O    3.368932   3.967892   3.242018   2.845180   3.266393
    21  H    3.810484   3.636286   2.811263   2.669359   3.807382
    22  H    4.111766   3.579955   3.977227   3.510556   3.819809
    23  O    4.316759   4.213329   4.731806   4.285314   4.410095
    24  H    4.133724   3.900519   4.582381   4.293641   4.892866
    25  N    4.543117   3.300948   3.295300   2.808505   3.323640
    26  H    4.613274   2.676311   2.661398   2.449137   3.819680
    27  H    4.260681   3.455474   3.205758   2.504966   2.440449
    28  H    5.531076   4.220061   4.192096   3.754912   3.994894
                   11         12         13         14         15
    11  O    0.000000
    12  H    0.984586   0.000000
    13  H    3.477418   3.920013   0.000000
    14  O    2.758555   3.161734   0.968376   0.000000
    15  H    2.809367   3.437465   1.520936   1.002624   0.000000
    16  H    4.701058   5.474508   2.410288   3.034179   2.696801
    17  O    5.059628   5.726193   2.112365   2.889146   2.726368
    18  H    5.743896   6.449276   2.889153   3.550199   3.207308
    19  H    1.802321   1.943841   4.482058   3.570309   3.364526
    20  O    2.784054   2.838777   5.236995   4.300748   4.012666
    21  H    3.149340   3.285520   5.910963   5.014572   4.643784
    22  H    4.084763   5.005828   3.793194   3.985638   3.501536
    23  O    4.828740   5.733912   3.797555   4.173170   3.670231
    24  H    5.257553   6.206644   4.338092   4.623950   3.948168
    25  N    3.184197   4.027400   4.368319   4.274422   3.961653
    26  H    3.475261   4.324277   5.129042   4.912744   4.471282
    27  H    2.229619   3.025805   3.896442   3.657933   3.489303
    28  H    3.849942   4.570168   4.930673   4.947350   4.768823
                   16         17         18         19         20
    16  H    0.000000
    17  O    0.985954   0.000000
    18  H    1.517448   0.975609   0.000000
    19  H    5.726051   6.013238   6.498469   0.000000
    20  O    6.443450   6.701191   7.091263   0.982385   0.000000
    21  H    6.871709   7.242797   7.619158   1.546057   0.968398
    22  H    2.374370   3.338302   3.780218   5.216739   5.970579
    23  O    1.807976   2.786135   3.080082   5.900814   6.621251
    24  H    2.276583   3.185553   3.204701   6.078494   6.690338
    25  N    3.842159   4.690103   5.297710   4.465192   5.279549
    26  H    4.558283   5.433608   5.937881   4.426009   5.119767
    27  H    3.969644   4.676635   5.373638   3.678850   4.564447
    28  H    4.341271   5.184169   5.849461   5.281167   6.129478
                   21         22         23         24         25
    21  H    0.000000
    22  H    6.079302   0.000000
    23  O    6.802716   1.000053   0.000000
    24  H    6.817039   1.572098   0.967380   0.000000
    25  N    5.232746   1.799716   2.790438   3.277053   0.000000
    26  H    4.895573   2.379142   3.352547   3.589666   1.016684
    27  H    4.607834   2.421965   3.358564   3.899753   1.019945
    28  H    6.061668   2.321542   3.204248   3.809077   1.015625
                   26         27         28
    26  H    0.000000
    27  H    1.628748   0.000000
    28  H    1.636213   1.639311   0.000000
 Stoichiometry    H19NO8
 Framework group  C1[X(H19NO8)]
 Deg. of freedom    78
 Full point group                 C1      NOp   1
 Largest Abelian subgroup         C1      NOp   1
 Largest concise Abelian subgroup C1      NOp   1
                         Standard orientation:                         
 ---------------------------------------------------------------------
 Center     Atomic      Atomic             Coordinates (Angstroms)
 Number     Number       Type             X           Y           Z
 ---------------------------------------------------------------------
      1          1           0       -0.488267    1.549742   -1.408848
      2          8           0       -0.453976    2.534183   -1.399941
      3          1           0       -1.397495    2.777556   -1.423680
      4          1           0       -1.077884   -0.382374   -2.060070
      5          8           0       -0.340933   -0.206968   -1.434877
      6          1           0        0.480757   -0.265549   -1.998114
      7          1           0        1.187103    2.296033   -0.372660
      8          8           0        1.959231    1.845218    0.014694
      9          1           0        1.639942    0.960108    0.234918
     10          1           0        0.932536   -1.743280    0.871883
     11          8           0        1.707631   -1.239914    1.208268
     12          1           0        2.320982   -1.964590    1.469140
     13          1           0       -1.277101   -2.594218    0.046512
     14          8           0       -0.337475   -2.485747   -0.161063
     15          1           0       -0.351778   -1.618876   -0.664635
     16          1           0       -2.809094   -0.733862    0.006994
     17          8           0       -3.067670   -1.579466   -0.429121
     18          1           0       -3.484168   -1.253280   -1.248844
     19          1           0        2.909421   -1.001659   -0.113586
     20          8           0        3.581357   -0.837560   -0.811191
     21          1           0        3.999791   -0.000923   -0.560700
     22          1           0       -1.722649    0.977572    1.243224
     23          8           0       -2.608703    0.883831    0.789101
     24          1           0       -2.612158    1.533252    0.072119
     25          7           0       -0.264879    1.009637    2.298144
     26          1           0        0.325524    1.816916    2.115465
     27          1           0        0.342556    0.192694    2.235598
     28          1           0       -0.579567    1.078657    3.261317
 ---------------------------------------------------------------------
 Rotational constants (GHZ):           0.8046446           0.5764310           0.4790598
 Leave Link  202 at Sat Jan 23 22:50:13 2021, MaxMem=  3221225472 cpu:               0.6 elap:               0.0
 (Enter /home/spantaleone/g16/l122.exe)
 Counterpoise: doing full-system calculation.
 Leave Link  122 at Sat Jan 23 22:50:13 2021, MaxMem=  3221225472 cpu:               0.0 elap:               0.0
 (Enter /home/spantaleone/g16/l301.exe)
 Standard basis: Aug-CC-pVTZ (5D, 7F)
 Ernie: Thresh=  0.10000D-02 Tol=  0.10000D-05 Strict=F.
 Ernie:  27 primitive shells out of 479 were deleted.
 There are   970 symmetry adapted cartesian basis functions of A   symmetry.
 There are   851 symmetry adapted basis functions of A   symmetry.
   851 basis functions,  1161 primitive gaussians,   970 cartesian basis functions
    45 alpha electrons       45 beta electrons
       nuclear repulsion energy       591.0394350411 Hartrees.
 IExCor= 3630 DFT=T Ex+Corr=B97D3 ExCW=0 ScaHFX=  0.000000
 ScaDFX=  1.000000  1.000000  1.000000  1.000000 ScalE2=  1.000000  1.000000
 IRadAn=      5 IRanWt=     -1 IRanGd=            0 ICorTp=0 IEmpDi=141
 NAtoms=   28 NActive=   28 NUniq=   28 SFac= 1.00D+00 NAtFMM=   60 NAOKFM=F Big=F
 Integral buffers will be    131072 words long.
 Raffenetti 2 integral format.
 Two-electron integral symmetry is turned on.
 R6Disp:  Grimme-D3(BJ) Dispersion energy=       -0.0451929889 Hartrees.
 Nuclear repulsion after empirical dispersion term =      590.9942420522 Hartrees.
 Leave Link  301 at Sat Jan 23 22:50:13 2021, MaxMem=  3221225472 cpu:               1.8 elap:               0.1
 (Enter /home/spantaleone/g16/l302.exe)
 NPDir=0 NMtPBC=     1 NCelOv=     1 NCel=       1 NClECP=     1 NCelD=      1
         NCelK=      1 NCelE2=     1 NClLst=     1 CellRange=     0.0.
 One-electron integrals computed using PRISM.
 One-electron integral symmetry used in STVInt
 NBasis=   851 RedAO= T EigKep=  7.83D-06  NBF=   851
 NBsUse=   851 1.00D-06 EigRej= -1.00D+00 NBFU=   851
 Precomputing XC quadrature grid using
 IXCGrd= 4 IRadAn=           5 IRanWt=          -1 IRanGd=           0 AccXCQ= 0.00D+00.
 Generated NRdTot=       0 NPtTot=           0 NUsed=           0 NTot=          32
 NSgBfM=   969   968   968   969   969 MxSgAt=    28 MxSgA2=    28.
 Leave Link  302 at Sat Jan 23 22:50:16 2021, MaxMem=  3221225472 cpu:              55.7 elap:               2.4
 (Enter /home/spantaleone/g16/l303.exe)
 DipDrv:  MaxL=1.
 Leave Link  303 at Sat Jan 23 22:50:16 2021, MaxMem=  3221225472 cpu:               4.7 elap:               0.2
 (Enter /home/spantaleone/g16/l401.exe)
 ExpMin= 2.53D-02 ExpMax= 1.53D+04 ExpMxC= 5.22D+02 IAcc=3 IRadAn=         5 AccDes= 0.00D+00
 Harris functional with IExCor= 3630 and IRadAn=       5 diagonalized for initial guess.
 HarFok:  IExCor= 3630 AccDes= 0.00D+00 IRadAn=         5 IDoV= 1 UseB2=F ITyADJ=14
 ICtDFT=  3500011 ScaDFX=  1.000000  1.000000  1.000000  1.000000
 FoFCou: FMM=F IPFlag=           0 FMFlag=      100000 FMFlg1=           0
         NFxFlg=           0 DoJE=T BraDBF=F KetDBF=T FulRan=T
         wScrn=  0.000000 ICntrl=       500 IOpCl=  0 I1Cent=   200000004 NGrid=           0
         NMat0=    1 NMatS0=      1 NMatT0=    0 NMatD0=    1 NMtDS0=    0 NMtDT0=    0
 Petite list used in FoFCou.
 Harris En= -668.375158723510    
 JPrj=0 DoOrth=F DoCkMO=F.
 Leave Link  401 at Sat Jan 23 22:50:23 2021, MaxMem=  3221225472 cpu:             152.2 elap:               6.4
 (Enter /home/spantaleone/g16/l502.exe)
 Integral symmetry usage will be decided dynamically.
 Closed shell SCF:
 Using DIIS extrapolation, IDIIS=  1040.
 NGot=  3221225472 LenX=  3219312446 LenY=  3218370576
 Requested convergence on RMS density matrix=1.00D-08 within 128 cycles.
 Requested convergence on MAX density matrix=1.00D-06.
 Requested convergence on             energy=1.00D-06.
 No special actions if energy rises.
 Fock matrices will be formed incrementally for  20 cycles.

 Cycle   1  Pass 1  IDiag  1:
 FoFJK:  IHMeth= 1 ICntrl=     500 DoSepK=F KAlg= 0 I1Cent=           0 FoldK=F
 IRaf= 930000000 NMat=       1 IRICut=       1 DoRegI=T DoRafI=F ISym2E= 0 IDoP0=0 IntGTp=1.
 FoFCou: FMM=F IPFlag=           0 FMFlag=      100000 FMFlg1=           0
         NFxFlg=           0 DoJE=T BraDBF=F KetDBF=F FulRan=T
         wScrn=  0.000000 ICntrl=       500 IOpCl=  0 I1Cent=           0 NGrid=           0
         NMat0=    1 NMatS0=      1 NMatT0=    0 NMatD0=    1 NMtDS0=    0 NMtDT0=    0
 Symmetry not used in FoFCou.
 E= -667.372327217149    
 DIIS: error= 2.04D-02 at cycle   1 NSaved=   1.
 NSaved= 1 IEnMin= 1 EnMin= -667.372327217149     IErMin= 1 ErrMin= 2.04D-02
 ErrMax= 2.04D-02  0.00D+00 EMaxC= 1.00D-01 BMatC= 9.20D-01 BMatP= 9.20D-01
 IDIUse=3 WtCom= 7.96D-01 WtEn= 2.04D-01
 Coeff-Com:  0.100D+01
 Coeff-En:   0.100D+01
 Coeff:      0.100D+01
 Gap=     0.071 Goal=   None    Shift=    0.000
 GapD=    0.071 DampG=0.500 DampE=0.500 DampFc=0.2500 IDamp=-1.
 Damping current iteration by 2.50D-01
 RMSDP=2.40D-03 MaxDP=1.68D-01              OVMax= 5.34D-01

 Cycle   2  Pass 1  IDiag  1:
 RMSU=  5.93D-04    CP:  9.84D-01
 E= -667.585002544142     Delta-E=       -0.212675326993 Rises=F Damp=T
 DIIS: error= 4.76D-03 at cycle   2 NSaved=   2.
 NSaved= 2 IEnMin= 2 EnMin= -667.585002544142     IErMin= 2 ErrMin= 4.76D-03
 ErrMax= 4.76D-03  0.00D+00 EMaxC= 1.00D-01 BMatC= 6.63D-02 BMatP= 9.20D-01
 IDIUse=3 WtCom= 9.52D-01 WtEn= 4.76D-02
 Coeff-Com: -0.309D+00 0.131D+01
 Coeff-En:   0.100D+00 0.900D+00
 Coeff:     -0.290D+00 0.129D+01
 Gap=     0.105 Goal=   None    Shift=    0.000
 RMSDP=5.03D-04 MaxDP=6.75D-02 DE=-2.13D-01 OVMax= 5.29D-01

 Cycle   3  Pass 1  IDiag  1:
 RMSU=  4.81D-04    CP:  9.72D-01  7.77D-01
 E= -668.001892041590     Delta-E=       -0.416889497448 Rises=F Damp=F
 DIIS: error= 4.01D-03 at cycle   3 NSaved=   3.
 NSaved= 3 IEnMin= 3 EnMin= -668.001892041590     IErMin= 3 ErrMin= 4.01D-03
 ErrMax= 4.01D-03  0.00D+00 EMaxC= 1.00D-01 BMatC= 4.00D-02 BMatP= 6.63D-02
 IDIUse=3 WtCom= 9.60D-01 WtEn= 4.01D-02
 Coeff-Com: -0.215D+00 0.854D+00 0.361D+00
 Coeff-En:   0.000D+00 0.000D+00 0.100D+01
 Coeff:     -0.207D+00 0.820D+00 0.386D+00
 Gap=     0.192 Goal=   None    Shift=    0.000
 RMSDP=1.51D-04 MaxDP=1.37D-02 DE=-4.17D-01 OVMax= 3.65D-02

 Cycle   4  Pass 1  IDiag  1:
 RMSU=  1.46D-04    CP:  9.72D-01  7.68D-01  9.18D-01
 E= -668.030888888707     Delta-E=       -0.028996847117 Rises=F Damp=F
 DIIS: error= 8.97D-04 at cycle   4 NSaved=   4.
 NSaved= 4 IEnMin= 4 EnMin= -668.030888888707     IErMin= 4 ErrMin= 8.97D-04
 ErrMax= 8.97D-04  0.00D+00 EMaxC= 1.00D-01 BMatC= 2.28D-03 BMatP= 4.00D-02
 IDIUse=3 WtCom= 9.91D-01 WtEn= 8.97D-03
 Coeff-Com: -0.646D-01 0.153D+00 0.142D+00 0.769D+00
 Coeff-En:   0.000D+00 0.000D+00 0.000D+00 0.100D+01
 Coeff:     -0.640D-01 0.152D+00 0.141D+00 0.771D+00
 Gap=     0.163 Goal=   None    Shift=    0.000
 RMSDP=7.91D-05 MaxDP=8.67D-03 DE=-2.90D-02 OVMax= 9.95D-03

 Cycle   5  Pass 1  IDiag  1:
 RMSU=  6.36D-05    CP:  9.72D-01  8.43D-01  9.49D-01  9.55D-01
 E= -668.032553669581     Delta-E=       -0.001664780874 Rises=F Damp=F
 DIIS: error= 3.42D-04 at cycle   5 NSaved=   5.
 NSaved= 5 IEnMin= 5 EnMin= -668.032553669581     IErMin= 5 ErrMin= 3.42D-04
 ErrMax= 3.42D-04  0.00D+00 EMaxC= 1.00D-01 BMatC= 3.65D-04 BMatP= 2.28D-03
 IDIUse=3 WtCom= 9.97D-01 WtEn= 3.42D-03
 Coeff-Com: -0.180D-01 0.270D-01 0.403D-01 0.360D+00 0.591D+00
 Coeff-En:   0.000D+00 0.000D+00 0.000D+00 0.156D-01 0.984D+00
 Coeff:     -0.179D-01 0.269D-01 0.402D-01 0.359D+00 0.592D+00
 Gap=     0.161 Goal=   None    Shift=    0.000
 RMSDP=2.22D-05 MaxDP=2.27D-03 DE=-1.66D-03 OVMax= 4.33D-03

 Cycle   6  Pass 1  IDiag  1:
 RMSU=  2.14D-05    CP:  9.72D-01  8.44D-01  9.52D-01  9.86D-01  9.40D-01
 E= -668.032759806686     Delta-E=       -0.000206137105 Rises=F Damp=F
 DIIS: error= 2.20D-04 at cycle   6 NSaved=   6.
 NSaved= 6 IEnMin= 6 EnMin= -668.032759806686     IErMin= 6 ErrMin= 2.20D-04
 ErrMax= 2.20D-04  0.00D+00 EMaxC= 1.00D-01 BMatC= 1.23D-04 BMatP= 3.65D-04
 IDIUse=3 WtCom= 9.98D-01 WtEn= 2.20D-03
 Coeff-Com: -0.303D-02 0.188D-02 0.153D-01 0.120D+00 0.369D+00 0.498D+00
 Coeff-En:   0.000D+00 0.000D+00 0.000D+00 0.000D+00 0.230D+00 0.770D+00
 Coeff:     -0.302D-02 0.187D-02 0.153D-01 0.119D+00 0.368D+00 0.498D+00
 Gap=     0.162 Goal=   None    Shift=    0.000
 RMSDP=9.79D-06 MaxDP=1.14D-03 DE=-2.06D-04 OVMax= 2.01D-03

 Cycle   7  Pass 1  IDiag  1:
 RMSU=  7.16D-06    CP:  9.72D-01  8.43D-01  9.53D-01  9.77D-01  9.84D-01
                    CP:  7.27D-01
 E= -668.032837483877     Delta-E=       -0.000077677192 Rises=F Damp=F
 DIIS: error= 5.78D-05 at cycle   7 NSaved=   7.
 NSaved= 7 IEnMin= 7 EnMin= -668.032837483877     IErMin= 7 ErrMin= 5.78D-05
 ErrMax= 5.78D-05  0.00D+00 EMaxC= 1.00D-01 BMatC= 1.25D-05 BMatP= 1.23D-04
 IDIUse=1 WtCom= 1.00D+00 WtEn= 0.00D+00
 Coeff-Com:  0.119D-02-0.141D-02 0.727D-02 0.861D-02 0.110D+00 0.273D+00
 Coeff-Com:  0.601D+00
 Coeff:      0.119D-02-0.141D-02 0.727D-02 0.861D-02 0.110D+00 0.273D+00
 Coeff:      0.601D+00
 Gap=     0.163 Goal=   None    Shift=    0.000
 RMSDP=3.10D-06 MaxDP=3.72D-04 DE=-7.77D-05 OVMax= 6.50D-04

 Cycle   8  Pass 1  IDiag  1:
 RMSU=  2.38D-06    CP:  9.72D-01  8.43D-01  9.54D-01  9.69D-01  9.88D-01
                    CP:  7.79D-01  8.59D-01
 E= -668.032846428004     Delta-E=       -0.000008944126 Rises=F Damp=F
 DIIS: error= 1.23D-05 at cycle   8 NSaved=   8.
 NSaved= 8 IEnMin= 8 EnMin= -668.032846428004     IErMin= 8 ErrMin= 1.23D-05
 ErrMax= 1.23D-05  0.00D+00 EMaxC= 1.00D-01 BMatC= 4.44D-07 BMatP= 1.25D-05
 IDIUse=1 WtCom= 1.00D+00 WtEn= 0.00D+00
 Coeff-Com:  0.752D-03-0.881D-03 0.339D-02 0.109D-02 0.416D-01 0.115D+00
 Coeff-Com:  0.291D+00 0.548D+00
 Coeff:      0.752D-03-0.881D-03 0.339D-02 0.109D-02 0.416D-01 0.115D+00
 Coeff:      0.291D+00 0.548D+00
 Gap=     0.163 Goal=   None    Shift=    0.000
 RMSDP=7.06D-07 MaxDP=7.32D-05 DE=-8.94D-06 OVMax= 1.64D-04

 Cycle   9  Pass 1  IDiag  1:
 RMSU=  6.51D-07    CP:  9.72D-01  8.43D-01  9.54D-01  9.69D-01  9.88D-01
                    CP:  7.84D-01  8.75D-01  9.22D-01
 E= -668.032846676956     Delta-E=       -0.000000248952 Rises=F Damp=F
 DIIS: error= 6.46D-06 at cycle   9 NSaved=   9.
 NSaved= 9 IEnMin= 9 EnMin= -668.032846676956     IErMin= 9 ErrMin= 6.46D-06
 ErrMax= 6.46D-06  0.00D+00 EMaxC= 1.00D-01 BMatC= 1.08D-07 BMatP= 4.44D-07
 IDIUse=1 WtCom= 1.00D+00 WtEn= 0.00D+00
 Coeff-Com:  0.265D-03-0.273D-03 0.105D-02-0.939D-04 0.880D-02 0.274D-01
 Coeff-Com:  0.818D-01 0.346D+00 0.535D+00
 Coeff:      0.265D-03-0.273D-03 0.105D-02-0.939D-04 0.880D-02 0.274D-01
 Coeff:      0.818D-01 0.346D+00 0.535D+00
 Gap=     0.163 Goal=   None    Shift=    0.000
 RMSDP=2.84D-07 MaxDP=3.04D-05 DE=-2.49D-07 OVMax= 5.15D-05

 Cycle  10  Pass 1  IDiag  1:
 RMSU=  1.77D-07    CP:  9.72D-01  8.42D-01  9.54D-01  9.69D-01  9.88D-01
                    CP:  7.83D-01  8.79D-01  9.56D-01  6.96D-01
 E= -668.032846751213     Delta-E=       -0.000000074257 Rises=F Damp=F
 DIIS: error= 1.13D-06 at cycle  10 NSaved=  10.
 NSaved=10 IEnMin=10 EnMin= -668.032846751213     IErMin=10 ErrMin= 1.13D-06
 ErrMax= 1.13D-06  0.00D+00 EMaxC= 1.00D-01 BMatC= 3.99D-09 BMatP= 1.08D-07
 IDIUse=1 WtCom= 1.00D+00 WtEn= 0.00D+00
 Coeff-Com:  0.439D-04-0.337D-04 0.159D-03 0.578D-05 0.259D-04 0.118D-02
 Coeff-Com:  0.904D-02 0.992D-01 0.235D+00 0.655D+00
 Coeff:      0.439D-04-0.337D-04 0.159D-03 0.578D-05 0.259D-04 0.118D-02
 Coeff:      0.904D-02 0.992D-01 0.235D+00 0.655D+00
 Gap=     0.163 Goal=   None    Shift=    0.000
 RMSDP=6.69D-08 MaxDP=6.63D-06 DE=-7.43D-08 OVMax= 9.78D-06

 Cycle  11  Pass 1  IDiag  1:
 RMSU=  5.63D-08    CP:  9.72D-01  8.42D-01  9.54D-01  9.69D-01  9.88D-01
                    CP:  7.83D-01  8.80D-01  9.62D-01  7.31D-01  8.95D-01
 E= -668.032846753861     Delta-E=       -0.000000002648 Rises=F Damp=F
 DIIS: error= 4.67D-07 at cycle  11 NSaved=  11.
 NSaved=11 IEnMin=11 EnMin= -668.032846753861     IErMin=11 ErrMin= 4.67D-07
 ErrMax= 4.67D-07  0.00D+00 EMaxC= 1.00D-01 BMatC= 5.87D-10 BMatP= 3.99D-09
 IDIUse=1 WtCom= 1.00D+00 WtEn= 0.00D+00
 Coeff-Com:  0.165D-04-0.120D-04 0.553D-04 0.230D-04-0.337D-03-0.317D-03
 Coeff-Com:  0.249D-02 0.465D-01 0.121D+00 0.393D+00 0.438D+00
 Coeff:      0.165D-04-0.120D-04 0.553D-04 0.230D-04-0.337D-03-0.317D-03
 Coeff:      0.249D-02 0.465D-01 0.121D+00 0.393D+00 0.438D+00
 Gap=     0.163 Goal=   None    Shift=    0.000
 RMSDP=2.25D-08 MaxDP=3.08D-06 DE=-2.65D-09 OVMax= 4.19D-06

 Cycle  12  Pass 1  IDiag  1:
 RMSU=  1.98D-08    CP:  9.72D-01  8.42D-01  9.54D-01  9.69D-01  9.88D-01
                    CP:  7.83D-01  8.80D-01  9.61D-01  7.34D-01  9.09D-01
                    CP:  8.29D-01
 E= -668.032846754208     Delta-E=       -0.000000000347 Rises=F Damp=F
 DIIS: error= 1.00D-07 at cycle  12 NSaved=  12.
 NSaved=12 IEnMin=12 EnMin= -668.032846754208     IErMin=12 ErrMin= 1.00D-07
 ErrMax= 1.00D-07  0.00D+00 EMaxC= 1.00D-01 BMatC= 3.70D-11 BMatP= 5.87D-10
 IDIUse=1 WtCom= 1.00D+00 WtEn= 0.00D+00
 Coeff-Com:  0.101D-05-0.698D-06-0.599D-06 0.744D-05-0.226D-03-0.404D-03
 Coeff-Com: -0.231D-03 0.690D-02 0.216D-01 0.870D-01 0.223D+00 0.662D+00
 Coeff:      0.101D-05-0.698D-06-0.599D-06 0.744D-05-0.226D-03-0.404D-03
 Coeff:     -0.231D-03 0.690D-02 0.216D-01 0.870D-01 0.223D+00 0.662D+00
 Gap=     0.163 Goal=   None    Shift=    0.000
 RMSDP=5.62D-09 MaxDP=6.57D-07 DE=-3.47D-10 OVMax= 9.18D-07

 SCF Done:  E(RB97D3) =  -668.032846754     A.U. after   12 cycles
            NFock= 12  Conv=0.56D-08     -V/T= 2.0056
 KE= 6.643416022511D+02 PE=-2.759199851217D+03 EE= 8.358311601592D+02
 Leave Link  502 at Sat Jan 23 22:56:22 2021, MaxMem=  3221225472 cpu:            8623.4 elap:             359.7
 (Enter /home/spantaleone/g16/l601.exe)
 Copying SCF densities to generalized density rwf, IOpCl= 0 IROHF=0.

 **********************************************************************

            Population analysis using the SCF Density.

 **********************************************************************

 Orbital symmetries:
       Occupied  (A) (A) (A) (A) (A) (A) (A) (A) (A) (A) (A) (A)
                 (A) (A) (A) (A) (A) (A) (A) (A) (A) (A) (A) (A)
                 (A) (A) (A) (A) (A) (A) (A) (A) (A) (A) (A) (A)
                 (A) (A) (A) (A) (A) (A) (A) (A) (A)
       Virtual   (A) (A) (A) (A) (A) (A) (A) (A) (A) (A) (A) (A)
                 (A) (A) (A) (A) (A) (A) (A) (A) (A) (A) (A) (A)
                 (A) (A) (A) (A) (A) (A) (A) (A) (A) (A) (A) (A)
                 (A) (A) (A) (A) (A) (A) (A) (A) (A) (A) (A) (A)
                 (A) (A) (A) (A) (A) (A) (A) (A) (A) (A) (A) (A)
                 (A) (A) (A) (A) (A) (A) (A) (A) (A) (A) (A) (A)
                 (A) (A) (A) (A) (A) (A) (A) (A) (A) (A) (A) (A)
                 (A) (A) (A) (A) (A) (A) (A) (A) (A) (A) (A) (A)
                 (A) (A) (A) (A) (A) (A) (A) (A) (A) (A) (A) (A)
                 (A) (A) (A) (A) (A) (A) (A) (A) (A) (A) (A) (A)
                 (A) (A) (A) (A) (A) (A) (A) (A) (A) (A) (A) (A)
                 (A) (A) (A) (A) (A) (A) (A) (A) (A) (A) (A) (A)
                 (A) (A) (A) (A) (A) (A) (A) (A) (A) (A) (A) (A)
                 (A) (A) (A) (A) (A) (A) (A) (A) (A) (A) (A) (A)
                 (A) (A) (A) (A) (A) (A) (A) (A) (A) (A) (A) (A)
                 (A) (A) (A) (A) (A) (A) (A) (A) (A) (A) (A) (A)
                 (A) (A) (A) (A) (A) (A) (A) (A) (A) (A) (A) (A)
                 (A) (A) (A) (A) (A) (A) (A) (A) (A) (A) (A) (A)
                 (A) (A) (A) (A) (A) (A) (A) (A) (A) (A) (A) (A)
                 (A) (A) (A) (A) (A) (A) (A) (A) (A) (A) (A) (A)
                 (A) (A) (A) (A) (A) (A) (A) (A) (A) (A) (A) (A)
                 (A) (A) (A) (A) (A) (A) (A) (A) (A) (A) (A) (A)
                 (A) (A) (A) (A) (A) (A) (A) (A) (A) (A) (A) (A)
                 (A) (A) (A) (A) (A) (A) (A) (A) (A) (A) (A) (A)
                 (A) (A) (A) (A) (A) (A) (A) (A) (A) (A) (A) (A)
                 (A) (A) (A) (A) (A) (A) (A) (A) (A) (A) (A) (A)
                 (A) (A) (A) (A) (A) (A) (A) (A) (A) (A) (A) (A)
                 (A) (A) (A) (A) (A) (A) (A) (A) (A) (A) (A) (A)
                 (A) (A) (A) (A) (A) (A) (A) (A) (A) (A) (A) (A)
                 (A) (A) (A) (A) (A) (A) (A) (A) (A) (A) (A) (A)
                 (A) (A) (A) (A) (A) (A) (A) (A) (A) (A) (A) (A)
                 (A) (A) (A) (A) (A) (A) (A) (A) (A) (A) (A) (A)
                 (A) (A) (A) (A) (A) (A) (A) (A) (A) (A) (A) (A)
                 (A) (A) (A) (A) (A) (A) (A) (A) (A) (A) (A) (A)
                 (A) (A) (A) (A) (A) (A) (A) (A) (A) (A) (A) (A)
                 (A) (A) (A) (A) (A) (A) (A) (A) (A) (A) (A) (A)
                 (A) (A) (A) (A) (A) (A) (A) (A) (A) (A) (A) (A)
                 (A) (A) (A) (A) (A) (A) (A) (A) (A) (A) (A) (A)
                 (A) (A) (A) (A) (A) (A) (A) (A) (A) (A) (A) (A)
                 (A) (A) (A) (A) (A) (A) (A) (A) (A) (A) (A) (A)
                 (A) (A) (A) (A) (A) (A) (A) (A) (A) (A) (A) (A)
                 (A) (A) (A) (A) (A) (A) (A) (A) (A) (A) (A) (A)
                 (A) (A) (A) (A) (A) (A) (A) (A) (A) (A) (A) (A)
                 (A) (A) (A) (A) (A) (A) (A) (A) (A) (A) (A) (A)
                 (A) (A) (A) (A) (A) (A) (A) (A) (A) (A) (A) (A)
                 (A) (A) (A) (A) (A) (A) (A) (A) (A) (A) (A) (A)
                 (A) (A) (A) (A) (A) (A) (A) (A) (A) (A) (A) (A)
                 (A) (A) (A) (A) (A) (A) (A) (A) (A) (A) (A) (A)
                 (A) (A) (A) (A) (A) (A) (A) (A) (A) (A) (A) (A)
                 (A) (A) (A) (A) (A) (A) (A) (A) (A) (A) (A) (A)
                 (A) (A) (A) (A) (A) (A) (A) (A) (A) (A) (A) (A)
                 (A) (A) (A) (A) (A) (A) (A) (A) (A) (A) (A) (A)
                 (A) (A) (A) (A) (A) (A) (A) (A) (A) (A) (A) (A)
                 (A) (A) (A) (A) (A) (A) (A) (A) (A) (A) (A) (A)
                 (A) (A) (A) (A) (A) (A) (A) (A) (A) (A) (A) (A)
                 (A) (A) (A) (A) (A) (A) (A) (A) (A) (A) (A) (A)
                 (A) (A) (A) (A) (A) (A) (A) (A) (A) (A) (A) (A)
                 (A) (A) (A) (A) (A) (A) (A) (A) (A) (A) (A) (A)
                 (A) (A) (A) (A) (A) (A) (A) (A) (A) (A) (A) (A)
                 (A) (A) (A) (A) (A) (A) (A) (A) (A) (A) (A) (A)
                 (A) (A) (A) (A) (A) (A) (A) (A) (A) (A) (A) (A)
                 (A) (A) (A) (A) (A) (A) (A) (A) (A) (A) (A) (A)
                 (A) (A) (A) (A) (A) (A) (A) (A) (A) (A) (A) (A)
                 (A) (A) (A) (A) (A) (A) (A) (A) (A) (A) (A) (A)
                 (A) (A) (A) (A) (A) (A) (A) (A) (A) (A) (A) (A)
                 (A) (A) (A) (A) (A) (A) (A) (A) (A) (A) (A) (A)
                 (A) (A) (A) (A) (A) (A) (A) (A) (A) (A) (A) (A)
                 (A) (A)
 The electronic state is 1-A.
 Alpha  occ. eigenvalues --  -18.84045 -18.77714 -18.77582 -18.75844 -18.75826
 Alpha  occ. eigenvalues --  -18.74455 -18.74044 -18.72742 -13.99774  -1.00873
 Alpha  occ. eigenvalues --   -0.94765  -0.94727  -0.93390  -0.92250  -0.91334
 Alpha  occ. eigenvalues --   -0.91256  -0.89662  -0.80233  -0.54962  -0.50331
 Alpha  occ. eigenvalues --   -0.49631  -0.48289  -0.47481  -0.47127  -0.46556
 Alpha  occ. eigenvalues --   -0.45179  -0.43851  -0.43404  -0.42074  -0.38947
 Alpha  occ. eigenvalues --   -0.37167  -0.36914  -0.35182  -0.33933  -0.32641
 Alpha  occ. eigenvalues --   -0.31983  -0.31408  -0.28502  -0.28158  -0.27270
 Alpha  occ. eigenvalues --   -0.26726  -0.26228  -0.25839  -0.25356  -0.23711
 Alpha virt. eigenvalues --   -0.07425  -0.03557  -0.03036  -0.01856  -0.00611
 Alpha virt. eigenvalues --    0.01079   0.01114   0.02040   0.02628   0.02829
 Alpha virt. eigenvalues --    0.03320   0.03961   0.04646   0.04914   0.05083
 Alpha virt. eigenvalues --    0.05161   0.05579   0.05738   0.06277   0.07213
 Alpha virt. eigenvalues --    0.07454   0.07866   0.08155   0.08537   0.08684
 Alpha virt. eigenvalues --    0.09419   0.10233   0.10476   0.10788   0.11120
 Alpha virt. eigenvalues --    0.11578   0.11644   0.11935   0.12422   0.12749
 Alpha virt. eigenvalues --    0.12848   0.13499   0.13666   0.13990   0.14417
 Alpha virt. eigenvalues --    0.14650   0.15232   0.15334   0.15694   0.15977
 Alpha virt. eigenvalues --    0.16426   0.16699   0.16989   0.17186   0.17725
 Alpha virt. eigenvalues --    0.17868   0.18232   0.18374   0.18946   0.19371
 Alpha virt. eigenvalues --    0.20012   0.20201   0.20669   0.20879   0.21151
 Alpha virt. eigenvalues --    0.21452   0.21870   0.22903   0.23128   0.23338
 Alpha virt. eigenvalues --    0.23979   0.24502   0.24877   0.25391   0.25575
 Alpha virt. eigenvalues --    0.26399   0.26586   0.26970   0.27010   0.27437
 Alpha virt. eigenvalues --    0.28166   0.28625   0.29052   0.29670   0.29747
 Alpha virt. eigenvalues --    0.30189   0.30786   0.31133   0.31309   0.31868
 Alpha virt. eigenvalues --    0.32520   0.32578   0.33282   0.33394   0.33911
 Alpha virt. eigenvalues --    0.34131   0.34944   0.35438   0.35665   0.35952
 Alpha virt. eigenvalues --    0.36350   0.36534   0.37046   0.37121   0.37729
 Alpha virt. eigenvalues --    0.37879   0.38371   0.39155   0.39560   0.39637
 Alpha virt. eigenvalues --    0.40147   0.41064   0.41369   0.41636   0.41963
 Alpha virt. eigenvalues --    0.42166   0.42800   0.43142   0.43310   0.44215
 Alpha virt. eigenvalues --    0.44950   0.45386   0.46147   0.46494   0.46951
 Alpha virt. eigenvalues --    0.47908   0.48360   0.48970   0.49285   0.49698
 Alpha virt. eigenvalues --    0.49861   0.50708   0.51072   0.51927   0.52618
 Alpha virt. eigenvalues --    0.53288   0.53599   0.54325   0.54913   0.55413
 Alpha virt. eigenvalues --    0.56253   0.56690   0.57006   0.57888   0.58203
 Alpha virt. eigenvalues --    0.58818   0.59823   0.60190   0.61083   0.61329
 Alpha virt. eigenvalues --    0.62053   0.62125   0.62656   0.63444   0.63882
 Alpha virt. eigenvalues --    0.64673   0.64873   0.65663   0.66247   0.66735
 Alpha virt. eigenvalues --    0.67633   0.68042   0.68317   0.68911   0.69058
 Alpha virt. eigenvalues --    0.69212   0.69902   0.70747   0.71288   0.71897
 Alpha virt. eigenvalues --    0.72080   0.72600   0.72980   0.73379   0.73972
 Alpha virt. eigenvalues --    0.74539   0.75063   0.75795   0.76336   0.76460
 Alpha virt. eigenvalues --    0.77045   0.77269   0.77862   0.78700   0.79189
 Alpha virt. eigenvalues --    0.79820   0.80081   0.80189   0.81169   0.81386
 Alpha virt. eigenvalues --    0.81951   0.82405   0.82517   0.83420   0.83801
 Alpha virt. eigenvalues --    0.84012   0.84147   0.85059   0.85147   0.85704
 Alpha virt. eigenvalues --    0.85972   0.86828   0.87159   0.87987   0.88355
 Alpha virt. eigenvalues --    0.88543   0.89338   0.89686   0.90120   0.90539
 Alpha virt. eigenvalues --    0.91157   0.91997   0.92269   0.92584   0.92893
 Alpha virt. eigenvalues --    0.93135   0.93683   0.94307   0.95165   0.95456
 Alpha virt. eigenvalues --    0.95879   0.96549   0.96906   0.97674   0.98521
 Alpha virt. eigenvalues --    0.99201   0.99352   0.99479   1.00089   1.00579
 Alpha virt. eigenvalues --    1.01487   1.02207   1.02507   1.02966   1.03266
 Alpha virt. eigenvalues --    1.03906   1.04266   1.05008   1.05385   1.05638
 Alpha virt. eigenvalues --    1.06403   1.06799   1.07842   1.07870   1.08397
 Alpha virt. eigenvalues --    1.08847   1.10223   1.10342   1.10785   1.11318
 Alpha virt. eigenvalues --    1.11723   1.12057   1.12153   1.12655   1.13245
 Alpha virt. eigenvalues --    1.13649   1.14173   1.14727   1.15594   1.15977
 Alpha virt. eigenvalues --    1.16612   1.17005   1.17453   1.18230   1.18512
 Alpha virt. eigenvalues --    1.18863   1.19686   1.20522   1.21335   1.21637
 Alpha virt. eigenvalues --    1.22540   1.22821   1.23680   1.23884   1.24943
 Alpha virt. eigenvalues --    1.25622   1.26563   1.26880   1.27917   1.28416
 Alpha virt. eigenvalues --    1.28839   1.29248   1.29681   1.30057   1.30842
 Alpha virt. eigenvalues --    1.31505   1.31743   1.32200   1.32655   1.33482
 Alpha virt. eigenvalues --    1.33871   1.34815   1.35409   1.35940   1.36732
 Alpha virt. eigenvalues --    1.37324   1.37639   1.38329   1.39381   1.40281
 Alpha virt. eigenvalues --    1.41116   1.41358   1.42639   1.42720   1.42934
 Alpha virt. eigenvalues --    1.43539   1.44567   1.45118   1.45738   1.46343
 Alpha virt. eigenvalues --    1.47076   1.48144   1.48396   1.49236   1.49728
 Alpha virt. eigenvalues --    1.49997   1.51236   1.51737   1.52311   1.53311
 Alpha virt. eigenvalues --    1.54094   1.54653   1.55536   1.55907   1.57389
 Alpha virt. eigenvalues --    1.57774   1.58007   1.58819   1.59932   1.60873
 Alpha virt. eigenvalues --    1.61900   1.62476   1.62922   1.64374   1.64839
 Alpha virt. eigenvalues --    1.65129   1.66668   1.67041   1.67255   1.68244
 Alpha virt. eigenvalues --    1.69323   1.69755   1.70040   1.70608   1.71485
 Alpha virt. eigenvalues --    1.71898   1.72276   1.73335   1.73424   1.74411
 Alpha virt. eigenvalues --    1.74988   1.75892   1.76318   1.77389   1.78385
 Alpha virt. eigenvalues --    1.78728   1.79284   1.79869   1.80733   1.82001
 Alpha virt. eigenvalues --    1.82676   1.84349   1.85249   1.85887   1.86710
 Alpha virt. eigenvalues --    1.87560   1.87864   1.89493   1.91021   1.91597
 Alpha virt. eigenvalues --    1.92512   1.93240   1.94141   1.94719   1.96528
 Alpha virt. eigenvalues --    1.98270   1.98593   2.00381   2.01097   2.02956
 Alpha virt. eigenvalues --    2.03289   2.05213   2.07047   2.07664   2.07812
 Alpha virt. eigenvalues --    2.09409   2.10487   2.10906   2.11707   2.12986
 Alpha virt. eigenvalues --    2.14506   2.14918   2.15476   2.16792   2.17242
 Alpha virt. eigenvalues --    2.18367   2.18609   2.19255   2.20573   2.20758
 Alpha virt. eigenvalues --    2.22175   2.22610   2.23131   2.23779   2.24169
 Alpha virt. eigenvalues --    2.25089   2.26159   2.26542   2.27832   2.28178
 Alpha virt. eigenvalues --    2.29225   2.29970   2.30644   2.31570   2.32053
 Alpha virt. eigenvalues --    2.32491   2.33277   2.34299   2.35206   2.35565
 Alpha virt. eigenvalues --    2.36346   2.37904   2.38373   2.38803   2.39993
 Alpha virt. eigenvalues --    2.40162   2.40899   2.42517   2.43058   2.43911
 Alpha virt. eigenvalues --    2.44533   2.45290   2.46349   2.46442   2.47316
 Alpha virt. eigenvalues --    2.48354   2.49018   2.49280   2.49595   2.49983
 Alpha virt. eigenvalues --    2.51427   2.52357   2.53544   2.54091   2.55684
 Alpha virt. eigenvalues --    2.56830   2.57074   2.57227   2.57496   2.59360
 Alpha virt. eigenvalues --    2.59931   2.60856   2.61248   2.62444   2.63916
 Alpha virt. eigenvalues --    2.64918   2.65601   2.66445   2.67362   2.68262
 Alpha virt. eigenvalues --    2.68571   2.69919   2.70751   2.72457   2.73271
 Alpha virt. eigenvalues --    2.74468   2.74798   2.75765   2.77163   2.78358
 Alpha virt. eigenvalues --    2.79230   2.79818   2.80231   2.81576   2.83293
 Alpha virt. eigenvalues --    2.83811   2.84076   2.84596   2.86359   2.87204
 Alpha virt. eigenvalues --    2.88338   2.90329   2.90646   2.91292   2.92754
 Alpha virt. eigenvalues --    2.94940   2.95783   2.96596   2.98062   3.00859
 Alpha virt. eigenvalues --    3.02597   3.04883   3.07560   3.09044   3.17607
 Alpha virt. eigenvalues --    3.23389   3.34097   3.45703   3.46867   3.50393
 Alpha virt. eigenvalues --    3.50624   3.55449   3.56924   3.59588   3.62847
 Alpha virt. eigenvalues --    3.63280   3.67450   3.68335   3.71078   3.73412
 Alpha virt. eigenvalues --    3.74845   3.77059   3.77437   3.78894   3.79731
 Alpha virt. eigenvalues --    3.80308   3.80849   3.81325   3.82922   3.84255
 Alpha virt. eigenvalues --    3.84993   3.85055   3.85716   3.86960   3.87370
 Alpha virt. eigenvalues --    3.88407   3.89455   3.89663   3.90532   3.91734
 Alpha virt. eigenvalues --    3.92735   3.92873   3.93833   3.94577   3.94878
 Alpha virt. eigenvalues --    3.95646   3.95995   3.96674   3.98275   3.99733
 Alpha virt. eigenvalues --    3.99765   4.00472   4.01057   4.01854   4.02170
 Alpha virt. eigenvalues --    4.03074   4.04040   4.05227   4.05562   4.06248
 Alpha virt. eigenvalues --    4.07022   4.07358   4.08290   4.09351   4.09971
 Alpha virt. eigenvalues --    4.11569   4.11884   4.12052   4.13229   4.13714
 Alpha virt. eigenvalues --    4.14975   4.15360   4.16224   4.16780   4.17005
 Alpha virt. eigenvalues --    4.19147   4.19699   4.20286   4.20426   4.21263
 Alpha virt. eigenvalues --    4.21870   4.23491   4.23769   4.25038   4.25537
 Alpha virt. eigenvalues --    4.25699   4.26152   4.27301   4.27984   4.28902
 Alpha virt. eigenvalues --    4.29395   4.29645   4.31515   4.32092   4.32266
 Alpha virt. eigenvalues --    4.34397   4.34718   4.35892   4.36301   4.37136
 Alpha virt. eigenvalues --    4.37168   4.38339   4.39298   4.40742   4.41173
 Alpha virt. eigenvalues --    4.42919   4.43450   4.44222   4.44777   4.46771
 Alpha virt. eigenvalues --    4.47992   4.49999   4.50964   4.51436   4.53357
 Alpha virt. eigenvalues --    4.53842   4.54919   4.55534   4.56330   4.58392
 Alpha virt. eigenvalues --    4.58791   4.59842   4.61238   4.63837   4.64808
 Alpha virt. eigenvalues --    4.65274   4.67174   4.67825   4.68401   4.69414
 Alpha virt. eigenvalues --    4.70862   4.72009   4.72051   4.73457   4.75869
 Alpha virt. eigenvalues --    4.76820   4.78301   4.79259   4.80058   4.80785
 Alpha virt. eigenvalues --    4.82273   4.83250   4.83704   4.85231   4.87346
 Alpha virt. eigenvalues --    4.87848   4.89505   4.90759   4.91382   4.92899
 Alpha virt. eigenvalues --    4.93392   4.95318   4.96235   4.97208   4.98694
 Alpha virt. eigenvalues --    4.99896   5.00026   5.01101   5.01939   5.02521
 Alpha virt. eigenvalues --    5.05422   5.05812   5.07987   5.08384   5.09830
 Alpha virt. eigenvalues --    5.10180   5.12661   5.14087   5.14682   5.15567
 Alpha virt. eigenvalues --    5.17572   5.18218   5.20342   5.22197   5.24427
 Alpha virt. eigenvalues --    5.26267   5.29643   5.31793   5.32592   5.33862
 Alpha virt. eigenvalues --    5.34927   5.42397   5.44237   5.45916   5.47189
 Alpha virt. eigenvalues --    5.48096   5.49126   5.50670   5.51864   5.56824
 Alpha virt. eigenvalues --    5.59831   5.82399   5.84897   5.85995   5.86475
 Alpha virt. eigenvalues --    5.87373   5.90091   5.91681   5.93235   5.94336
 Alpha virt. eigenvalues --    6.01442   6.03732   6.04818   6.06334   6.06466
 Alpha virt. eigenvalues --    6.11172   6.12215   6.14739   6.16895   6.20374
 Alpha virt. eigenvalues --    6.22964   6.27523   6.29765   6.30208   6.31084
 Alpha virt. eigenvalues --    6.33764   6.35055   6.37595   6.39585   6.40076
 Alpha virt. eigenvalues --    6.42549   6.44139   6.46284   6.47511   6.48425
 Alpha virt. eigenvalues --    6.51035   6.53457   6.53817   6.55113   6.57971
 Alpha virt. eigenvalues --    6.59286   6.64565   6.64753   6.66230   6.68039
 Alpha virt. eigenvalues --    6.69008   6.69659   6.70329   6.71052   6.71885
 Alpha virt. eigenvalues --    6.73425   6.75268   6.76759   6.77409   6.77705
 Alpha virt. eigenvalues --    6.78831   6.79947   6.80361   6.81246   6.82187
 Alpha virt. eigenvalues --    6.83226   6.84291   6.84505   6.85379   6.85998
 Alpha virt. eigenvalues --    6.87742   6.88421   6.88689   6.88964   6.90105
 Alpha virt. eigenvalues --    6.91495   6.92177   6.93299   6.93878   6.94899
 Alpha virt. eigenvalues --    6.96811   6.97531   6.97875   6.99274   6.99795
 Alpha virt. eigenvalues --    7.00759   7.01814   7.03149   7.04854   7.05685
 Alpha virt. eigenvalues --    7.07915   7.10783   7.17647   7.20059   7.23583
 Alpha virt. eigenvalues --    7.25800   7.26600   7.28436   7.30526   7.32850
 Alpha virt. eigenvalues --    7.33937   7.36691   7.40796   7.41740   7.42834
 Alpha virt. eigenvalues --    7.43837   7.45252   7.45845   7.47721   7.48127
 Alpha virt. eigenvalues --    7.48545   7.51272   7.54087   7.55598   7.55960
 Alpha virt. eigenvalues --    7.57658   7.60606   7.68031   7.71799   8.25662
 Alpha virt. eigenvalues --    8.29025   8.30364   8.30750   8.33043   8.33848
 Alpha virt. eigenvalues --    8.36512   8.52904  15.27363  15.36324  15.51083
 Alpha virt. eigenvalues --   16.21916  16.41169  16.60421  16.87011  17.86583
 Alpha virt. eigenvalues --   18.14951
          Condensed to atoms (all electrons):
               1          2          3          4          5          6
     1  H    0.560329  -0.042168   0.003014  -0.003974  -0.025014   0.001976
     2  O   -0.042168   8.455896   0.217289  -0.003447  -0.047028   0.003029
     3  H    0.003014   0.217289   0.690470  -0.006042   0.013057  -0.004862
     4  H   -0.003974  -0.003447  -0.006042   0.697900   0.275712   0.010067
     5  O   -0.025014  -0.047028   0.013057   0.275712   7.698691   0.319810
     6  H    0.001976   0.003029  -0.004862   0.010067   0.319810   0.572360
     7  H    0.006386  -0.029752   0.004640  -0.001317   0.010468  -0.000011
     8  O    0.001512  -0.044346   0.003581   0.000907   0.009193   0.003903
     9  H    0.003987   0.009288  -0.000153   0.000941   0.022734   0.001684
    10  H   -0.000859   0.000620  -0.000069  -0.000002   0.000223   0.000751
    11  O   -0.001802   0.001243  -0.000271   0.002093   0.009797  -0.002839
    12  H    0.000024  -0.000104   0.000009   0.000181   0.001469  -0.000046
    13  H    0.000976  -0.000012  -0.000244   0.001016   0.000704  -0.003570
    14  O   -0.002823  -0.000567  -0.000600  -0.012115  -0.053465   0.000162
    15  H    0.010983  -0.003591  -0.000465   0.009122  -0.076448   0.015787
    16  H   -0.000271   0.000507  -0.000009  -0.000606  -0.001278   0.000714
    17  O   -0.002456   0.000005   0.000335   0.006145   0.005048   0.000611
    18  H    0.000173  -0.000145   0.000241   0.006747  -0.002161   0.000565
    19  H    0.000518   0.000228  -0.000047  -0.000236  -0.000921  -0.000210
    20  O    0.000833   0.001148  -0.000126   0.000688  -0.001698   0.008973
    21  H    0.000015  -0.000015  -0.000062   0.000424  -0.000698  -0.000543
    22  H   -0.002654  -0.006404   0.000044  -0.000546  -0.003676   0.001543
    23  O    0.006197  -0.003718  -0.002443   0.006184  -0.037410   0.003030
    24  H   -0.008144   0.001931   0.012253   0.006633  -0.002813   0.000854
    25  N    0.002412  -0.003679   0.001514  -0.001049  -0.008015   0.002655
    26  H    0.000717   0.008134  -0.000129   0.000492  -0.007260   0.000039
    27  H    0.002966   0.000135  -0.000363   0.000308  -0.001784  -0.000134
    28  H   -0.000830  -0.000174   0.000179  -0.000415   0.004898   0.000120
               7          8          9         10         11         12
     1  H    0.006386   0.001512   0.003987  -0.000859  -0.001802   0.000024
     2  O   -0.029752  -0.044346   0.009288   0.000620   0.001243  -0.000104
     3  H    0.004640   0.003581  -0.000153  -0.000069  -0.000271   0.000009
     4  H   -0.001317   0.000907   0.000941  -0.000002   0.002093   0.000181
     5  O    0.010468   0.009193   0.022734   0.000223   0.009797   0.001469
     6  H   -0.000011   0.003903   0.001684   0.000751  -0.002839  -0.000046
     7  H    0.534301   0.195024   0.032995   0.002045   0.001281  -0.000500
     8  O    0.195024   8.522491  -0.064281  -0.002717  -0.021767   0.002643
     9  H    0.032995  -0.064281   0.550353   0.011676  -0.016828   0.001237
    10  H    0.002045  -0.002717   0.011676   0.495614   0.095384   0.039350
    11  O    0.001281  -0.021767  -0.016828   0.095384   8.378966   0.208819
    12  H   -0.000500   0.002643   0.001237   0.039350   0.208819   0.652162
    13  H   -0.000309   0.000227   0.000420  -0.002486   0.007672  -0.002134
    14  O    0.001479  -0.000052  -0.003705   0.009823  -0.101039   0.005428
    15  H   -0.000218  -0.002017  -0.002973   0.011329   0.003864  -0.003649
    16  H   -0.000122  -0.000261  -0.000046   0.000308  -0.000208   0.000050
    17  O   -0.000116  -0.000121   0.000177   0.003510  -0.001218   0.000076
    18  H    0.000015  -0.000026  -0.000032  -0.000166   0.000074   0.000032
    19  H   -0.000088   0.000586  -0.000588   0.013879  -0.012546  -0.005120
    20  O    0.002522  -0.011301  -0.003864  -0.001485  -0.037839   0.001410
    21  H   -0.000727   0.009343  -0.003720  -0.000542   0.008322  -0.002745
    22  H    0.002876  -0.000289  -0.002532   0.000578   0.003275  -0.000206
    23  O    0.001697   0.000779  -0.000471  -0.001086   0.004854  -0.000495
    24  H   -0.001697   0.001440   0.000497  -0.000791   0.000478   0.000056
    25  N   -0.001935  -0.005287   0.004066   0.005132  -0.027696   0.003991
    26  H    0.000631   0.008173  -0.000946  -0.001547   0.009398  -0.000424
    27  H    0.001141   0.003567   0.005171   0.000497  -0.013065  -0.006575
    28  H    0.000142  -0.000796  -0.003164  -0.000624  -0.005903   0.000188
              13         14         15         16         17         18
     1  H    0.000976  -0.002823   0.010983  -0.000271  -0.002456   0.000173
     2  O   -0.000012  -0.000567  -0.003591   0.000507   0.000005  -0.000145
     3  H   -0.000244  -0.000600  -0.000465  -0.000009   0.000335   0.000241
     4  H    0.001016  -0.012115   0.009122  -0.000606   0.006145   0.006747
     5  O    0.000704  -0.053465  -0.076448  -0.001278   0.005048  -0.002161
     6  H   -0.003570   0.000162   0.015787   0.000714   0.000611   0.000565
     7  H   -0.000309   0.001479  -0.000218  -0.000122  -0.000116   0.000015
     8  O    0.000227  -0.000052  -0.002017  -0.000261  -0.000121  -0.000026
     9  H    0.000420  -0.003705  -0.002973  -0.000046   0.000177  -0.000032
    10  H   -0.002486   0.009823   0.011329   0.000308   0.003510  -0.000166
    11  O    0.007672  -0.101039   0.003864  -0.000208  -0.001218   0.000074
    12  H   -0.002134   0.005428  -0.003649   0.000050   0.000076   0.000032
    13  H    0.597333   0.209907   0.024641  -0.002277  -0.023984  -0.001182
    14  O    0.209907   8.554141  -0.032791   0.002062  -0.016603   0.002324
    15  H    0.024641  -0.032791   0.645024   0.001195   0.004303  -0.000117
    16  H   -0.002277   0.002062   0.001195   0.507869   0.010545   0.048522
    17  O   -0.023984  -0.016603   0.004303   0.010545   8.409482   0.215565
    18  H   -0.001182   0.002324  -0.000117   0.048522   0.215565   0.628730
    19  H    0.000081   0.005385   0.001412  -0.000270  -0.000187   0.000025
    20  O   -0.000563  -0.001458   0.002035   0.000231  -0.000032  -0.000057
    21  H    0.000034   0.000028  -0.000103   0.000011   0.000012  -0.000008
    22  H    0.000928  -0.003315  -0.000578   0.013484   0.006502  -0.000075
    23  O   -0.003329   0.006495   0.015905  -0.028951  -0.108753   0.016209
    24  H    0.000289  -0.000819   0.001487   0.003416   0.001810   0.002083
    25  N   -0.001625   0.000783   0.001239   0.003212   0.002612  -0.000210
    26  H   -0.000026  -0.001117   0.000714  -0.000192   0.000027  -0.000026
    27  H    0.001093   0.006941   0.005712   0.000132  -0.001465   0.000247
    28  H   -0.000351   0.001343  -0.000271  -0.000539   0.000793  -0.000218
              19         20         21         22         23         24
     1  H    0.000518   0.000833   0.000015  -0.002654   0.006197  -0.008144
     2  O    0.000228   0.001148  -0.000015  -0.006404  -0.003718   0.001931
     3  H   -0.000047  -0.000126  -0.000062   0.000044  -0.002443   0.012253
     4  H   -0.000236   0.000688   0.000424  -0.000546   0.006184   0.006633
     5  O   -0.000921  -0.001698  -0.000698  -0.003676  -0.037410  -0.002813
     6  H   -0.000210   0.008973  -0.000543   0.001543   0.003030   0.000854
     7  H   -0.000088   0.002522  -0.000727   0.002876   0.001697  -0.001697
     8  O    0.000586  -0.011301   0.009343  -0.000289   0.000779   0.001440
     9  H   -0.000588  -0.003864  -0.003720  -0.002532  -0.000471   0.000497
    10  H    0.013879  -0.001485  -0.000542   0.000578  -0.001086  -0.000791
    11  O   -0.012546  -0.037839   0.008322   0.003275   0.004854   0.000478
    12  H   -0.005120   0.001410  -0.002745  -0.000206  -0.000495   0.000056
    13  H    0.000081  -0.000563   0.000034   0.000928  -0.003329   0.000289
    14  O    0.005385  -0.001458   0.000028  -0.003315   0.006495  -0.000819
    15  H    0.001412   0.002035  -0.000103  -0.000578   0.015905   0.001487
    16  H   -0.000270   0.000231   0.000011   0.013484  -0.028951   0.003416
    17  O   -0.000187  -0.000032   0.000012   0.006502  -0.108753   0.001810
    18  H    0.000025  -0.000057  -0.000008  -0.000075   0.016209   0.002083
    19  H    0.567602   0.038730   0.035565   0.000337   0.000354  -0.000023
    20  O    0.038730   8.261670   0.266813   0.000106   0.000102  -0.000036
    21  H    0.035565   0.266813   0.528267   0.000029  -0.000021   0.000030
    22  H    0.000337   0.000106   0.000029   0.541727  -0.044814   0.074677
    23  O    0.000354   0.000102  -0.000021  -0.044814   8.645185   0.193758
    24  H   -0.000023  -0.000036   0.000030   0.074677   0.193758   0.594241
    25  N   -0.000592  -0.000104  -0.000150   0.043597  -0.095927  -0.005481
    26  H    0.000010   0.000679  -0.000015   0.000134   0.001686   0.002298
    27  H    0.001512  -0.001819   0.000653   0.007738   0.003345   0.001439
    28  H   -0.000256  -0.000127  -0.000113  -0.020105   0.002649  -0.003996
              25         26         27         28
     1  H    0.002412   0.000717   0.002966  -0.000830
     2  O   -0.003679   0.008134   0.000135  -0.000174
     3  H    0.001514  -0.000129  -0.000363   0.000179
     4  H   -0.001049   0.000492   0.000308  -0.000415
     5  O   -0.008015  -0.007260  -0.001784   0.004898
     6  H    0.002655   0.000039  -0.000134   0.000120
     7  H   -0.001935   0.000631   0.001141   0.000142
     8  O   -0.005287   0.008173   0.003567  -0.000796
     9  H    0.004066  -0.000946   0.005171  -0.003164
    10  H    0.005132  -0.001547   0.000497  -0.000624
    11  O   -0.027696   0.009398  -0.013065  -0.005903
    12  H    0.003991  -0.000424  -0.006575   0.000188
    13  H   -0.001625  -0.000026   0.001093  -0.000351
    14  O    0.000783  -0.001117   0.006941   0.001343
    15  H    0.001239   0.000714   0.005712  -0.000271
    16  H    0.003212  -0.000192   0.000132  -0.000539
    17  O    0.002612   0.000027  -0.001465   0.000793
    18  H   -0.000210  -0.000026   0.000247  -0.000218
    19  H   -0.000592   0.000010   0.001512  -0.000256
    20  O   -0.000104   0.000679  -0.001819  -0.000127
    21  H   -0.000150  -0.000015   0.000653  -0.000113
    22  H    0.043597   0.000134   0.007738  -0.020105
    23  O   -0.095927   0.001686   0.003345   0.002649
    24  H   -0.005481   0.002298   0.001439  -0.003996
    25  N    6.346703   0.287510   0.209276   0.422163
    26  H    0.287510   0.674281   0.013289  -0.069865
    27  H    0.209276   0.013289   0.632449  -0.086395
    28  H    0.422163  -0.069865  -0.086395   0.816111
 Mulliken charges:
               1
     1  H    0.487974
     2  O   -0.514303
     3  H    0.069259
     4  H    0.004188
     5  O   -0.102134
     6  H    0.063583
     7  H    0.239153
     8  O   -0.610109
     9  H    0.458079
    10  H    0.321656
    11  O   -0.492498
    12  H    0.104872
    13  H    0.196771
    14  O   -0.575830
    15  H    0.368469
    16  H    0.442773
    17  O   -0.512625
    18  H    0.082871
    19  H    0.354861
    20  O   -0.525432
    21  H    0.159915
    22  H    0.387621
    23  O   -0.581009
    24  H    0.124131
    25  N   -0.185116
    26  H    0.073334
    27  H    0.213989
    28  H   -0.054444
 Sum of Mulliken charges =  -0.00000
 Mulliken charges with hydrogens summed into heavy atoms:
               1
     2  O    0.042930
     5  O   -0.034363
     8  O    0.087123
    11  O   -0.065970
    14  O   -0.010589
    17  O    0.013019
    20  O   -0.010656
    23  O   -0.069257
    25  N    0.047763
         Mulliken charges condensed to fragments:
      1     -0.047763
      2      0.047763
 Electronic spatial extent (au):  <R**2>=           2701.5835
 Charge=             -0.0000 electrons
 Dipole moment (field-independent basis, Debye):
    X=             -3.1862    Y=              1.3387    Z=             -0.6687  Tot=              3.5201
 Quadrupole moment (field-independent basis, Debye-Ang):
   XX=            -73.6129   YY=            -70.1187   ZZ=            -49.4022
   XY=             -7.4374   XZ=             15.3588   YZ=             -1.4678
 Traceless Quadrupole moment (field-independent basis, Debye-Ang):
   XX=             -9.2350   YY=             -5.7407   ZZ=             14.9757
   XY=             -7.4374   XZ=             15.3588   YZ=             -1.4678
 Octapole moment (field-independent basis, Debye-Ang**2):
  XXX=            -15.9975  YYY=             10.7305  ZZZ=              3.3133  XYY=            -12.4933
  XXY=             19.1901  XXZ=            -12.4945  XZZ=            -18.0848  YZZ=             -4.2821
  YYZ=             17.5152  XYZ=             -8.1786
 Hexadecapole moment (field-independent basis, Debye-Ang**3):
 XXXX=          -1698.4413 YYYY=          -1027.0859 ZZZZ=           -495.8752 XXXY=             13.4826
 XXXZ=            181.0989 YYYX=            -77.6619 YYYZ=            -27.4902 ZZZX=             22.3767
 ZZZY=             38.4513 XXYY=           -447.9698 XXZZ=           -347.3977 YYZZ=           -261.3256
 XXYZ=            -61.0840 YYXZ=             41.1893 ZZXY=              0.4532
 N-N= 5.909942420522D+02 E-N=-2.759199871173D+03  KE= 6.643416022511D+02
 No NMR shielding tensors so no spin-rotation constants.
 Leave Link  601 at Sat Jan 23 22:56:24 2021, MaxMem=  3221225472 cpu:              22.3 elap:               1.1
 (Enter /home/spantaleone/g16/l122.exe)
 CPIOFr:  IOpCl= 0 IRwI=-1 IRwCP=  731 ICalc= -1 LCPTot=     1095373 Len1MO=     2913475 IndFrg=     1095373
 CPIOFr:  IOpCl= 0 IRwI=-1 IRwCP=  731 ICalc=  0 LCPTot=     1095373 Len1MO=     2913475 IndFrg=     4008848
 Counterpoise: doing calculation for fragment   1 using the basis set of the full-system, NewBq=T
 Leave Link  122 at Sat Jan 23 22:56:24 2021, MaxMem=  3221225472 cpu:               1.5 elap:               0.1
 (Enter /home/spantaleone/g16/l301.exe)
 Basis read from rwf:  (5D, 7F)
 No pseudopotential information found on rwf file.
 There are   970 symmetry adapted cartesian basis functions of A   symmetry.
 There are   851 symmetry adapted basis functions of A   symmetry.
   851 basis functions,  1161 primitive gaussians,   970 cartesian basis functions
    40 alpha electrons       40 beta electrons
       nuclear repulsion energy       468.0208696915 Hartrees.
 IExCor= 3630 DFT=T Ex+Corr=B97D3 ExCW=0 ScaHFX=  0.000000
 ScaDFX=  1.000000  1.000000  1.000000  1.000000 ScalE2=  1.000000  1.000000
 IRadAn=      5 IRanWt=     -1 IRanGd=            0 ICorTp=0 IEmpDi=141
 NAtoms=   28 NActive=   28 NUniq=   28 SFac= 1.00D+00 NAtFMM=   60 NAOKFM=F Big=F
 Integral buffers will be    131072 words long.
 Raffenetti 2 integral format.
 Two-electron integral symmetry is turned on.
 R6Disp:  Grimme-D3(BJ) Dispersion energy=       -0.0350546387 Hartrees.
 Nuclear repulsion after empirical dispersion term =      467.9858150528 Hartrees.
 No density basis found on file   718.
 Leave Link  301 at Sat Jan 23 22:56:24 2021, MaxMem=  3221225472 cpu:               1.3 elap:               0.1
 (Enter /home/spantaleone/g16/l302.exe)
 NPDir=0 NMtPBC=     1 NCelOv=     1 NCel=       1 NClECP=     1 NCelD=      1
         NCelK=      1 NCelE2=     1 NClLst=     1 CellRange=     0.0.
 One-electron integrals computed using PRISM.
 One-electron integral symmetry used in STVInt
 NBasis=   851 RedAO= T EigKep=  7.83D-06  NBF=   851
 NBsUse=   851 1.00D-06 EigRej= -1.00D+00 NBFU=   851
 Precomputing XC quadrature grid using
 IXCGrd= 4 IRadAn=           5 IRanWt=          -1 IRanGd=           0 AccXCQ= 0.00D+00.
 Generated NRdTot=       0 NPtTot=           0 NUsed=           0 NTot=          32
 NSgBfM=   969   968   968   969   969 MxSgAt=    28 MxSgA2=    28.
 Leave Link  302 at Sat Jan 23 22:56:26 2021, MaxMem=  3221225472 cpu:              44.3 elap:               1.8
 (Enter /home/spantaleone/g16/l303.exe)
 DipDrv:  MaxL=1.
 Leave Link  303 at Sat Jan 23 22:56:26 2021, MaxMem=  3221225472 cpu:               4.3 elap:               0.2
 (Enter /home/spantaleone/g16/l401.exe)
 ExpMin= 2.53D-02 ExpMax= 1.53D+04 ExpMxC= 5.22D+02 IAcc=3 IRadAn=         5 AccDes= 0.00D+00
 Harris functional with IExCor= 3630 and IRadAn=       5 diagonalized for initial guess.
 HarFok:  IExCor= 3630 AccDes= 0.00D+00 IRadAn=         5 IDoV= 1 UseB2=F ITyADJ=14
 ICtDFT=  3500011 ScaDFX=  1.000000  1.000000  1.000000  1.000000
 FoFCou: FMM=F IPFlag=           0 FMFlag=      100000 FMFlg1=           0
         NFxFlg=           0 DoJE=T BraDBF=F KetDBF=T FulRan=T
         wScrn=  0.000000 ICntrl=       500 IOpCl=  0 I1Cent=   200000004 NGrid=           0
         NMat0=    1 NMatS0=      1 NMatT0=    0 NMatD0=    1 NMtDS0=    0 NMtDT0=    0
 Petite list used in FoFCou.
 Harris En= -611.767041676350    
 JPrj=0 DoOrth=F DoCkMO=F.
 Leave Link  401 at Sat Jan 23 22:56:32 2021, MaxMem=  3221225472 cpu:             152.5 elap:               6.4
 (Enter /home/spantaleone/g16/l502.exe)
 Integral symmetry usage will be decided dynamically.
 Closed shell SCF:
 Using DIIS extrapolation, IDIIS=  1040.
 NGot=  3221225472 LenX=  3219312446 LenY=  3218370576
 Requested convergence on RMS density matrix=1.00D-08 within 128 cycles.
 Requested convergence on MAX density matrix=1.00D-06.
 Requested convergence on             energy=1.00D-06.
 No special actions if energy rises.
 Fock matrices will be formed incrementally for  20 cycles.

 Cycle   1  Pass 1  IDiag  1:
 FoFJK:  IHMeth= 1 ICntrl=     500 DoSepK=F KAlg= 0 I1Cent=           0 FoldK=F
 IRaf= 930000000 NMat=       1 IRICut=       1 DoRegI=T DoRafI=F ISym2E= 0 IDoP0=0 IntGTp=1.
 FoFCou: FMM=F IPFlag=           0 FMFlag=      100000 FMFlg1=           0
         NFxFlg=           0 DoJE=T BraDBF=F KetDBF=F FulRan=T
         wScrn=  0.000000 ICntrl=       500 IOpCl=  0 I1Cent=           0 NGrid=           0
         NMat0=    1 NMatS0=      1 NMatT0=    0 NMatD0=    1 NMtDS0=    0 NMtDT0=    0
 Symmetry not used in FoFCou.
 E= -610.853328627803    
 DIIS: error= 1.97D-02 at cycle   1 NSaved=   1.
 NSaved= 1 IEnMin= 1 EnMin= -610.853328627803     IErMin= 1 ErrMin= 1.97D-02
 ErrMax= 1.97D-02  0.00D+00 EMaxC= 1.00D-01 BMatC= 8.38D-01 BMatP= 8.38D-01
 IDIUse=3 WtCom= 8.03D-01 WtEn= 1.97D-01
 Coeff-Com:  0.100D+01
 Coeff-En:   0.100D+01
 Coeff:      0.100D+01
 Gap=    -0.033 Goal=   None    Shift=    0.000
 GapD=   -0.033 DampG=0.250 DampE=0.500 DampFc=0.2500 IDamp=-1.
 Damping current iteration by 2.50D-01
 RMSDP=3.23D-03 MaxDP=5.11D-01              OVMax= 8.90D-01

 Cycle   2  Pass 1  IDiag  1:
 RMSU=  8.02D-04    CP:  9.81D-01
 E= -610.972888165009     Delta-E=       -0.119559537206 Rises=F Damp=T
 DIIS: error= 4.23D-03 at cycle   2 NSaved=   2.
 NSaved= 2 IEnMin= 2 EnMin= -610.972888165009     IErMin= 2 ErrMin= 4.23D-03
 ErrMax= 4.23D-03  0.00D+00 EMaxC= 1.00D-01 BMatC= 5.39D-02 BMatP= 8.38D-01
 IDIUse=3 WtCom= 9.58D-01 WtEn= 4.23D-02
 Coeff-Com: -0.222D+00 0.122D+01
 Coeff-En:   0.318D+00 0.682D+00
 Coeff:     -0.199D+00 0.120D+01
 Gap=    -0.250 Goal=   None    Shift=    0.000
 RMSDP=7.81D-04 MaxDP=1.28D-01 DE=-1.20D-01 OVMax= 8.06D-01

 Cycle   3  Pass 1  IDiag  1:
 RMSU=  5.94D-04    CP:  9.70D-01  3.72D-01
 E= -611.317414626498     Delta-E=       -0.344526461490 Rises=F Damp=F
 DIIS: error= 8.15D-03 at cycle   3 NSaved=   3.
 NSaved= 3 IEnMin= 3 EnMin= -611.317414626498     IErMin= 2 ErrMin= 4.23D-03
 ErrMax= 8.15D-03  0.00D+00 EMaxC= 1.00D-01 BMatC= 1.69D-01 BMatP= 5.39D-02
 IDIUse=3 WtCom= 9.97D-02 WtEn= 9.00D-01
 Coeff-Com: -0.193D+00 0.923D+00 0.270D+00
 Coeff-En:   0.000D+00 0.000D+00 0.100D+01
 Coeff:     -0.193D-01 0.921D-01 0.927D+00
 Gap=     0.323 Goal=   None    Shift=    0.000
 RMSDP=1.50D-03 MaxDP=1.31D-01 DE=-3.45D-01 OVMax= 9.91D-01

 Cycle   4  Pass 1  IDiag  1:
 RMSU=  1.12D-03    CP:  9.58D-01  1.27D+00 -1.79D-01
 E= -609.107959834584     Delta-E=        2.209454791915 Rises=F Damp=F
 DIIS: error= 2.72D-02 at cycle   4 NSaved=   4.
 NSaved= 4 IEnMin= 3 EnMin= -611.317414626498     IErMin= 2 ErrMin= 4.23D-03
 ErrMax= 2.72D-02  0.00D+00 EMaxC= 1.00D-01 BMatC= 1.38D+00 BMatP= 5.39D-02
 IDIUse=2 WtCom= 0.00D+00 WtEn= 1.00D+00
 Coeff-En:   0.000D+00 0.000D+00 0.910D+00 0.904D-01
 Coeff:      0.000D+00 0.000D+00 0.910D+00 0.904D-01
 Gap=    -0.064 Goal=   None    Shift=    0.000
 RMSDP=1.30D-03 MaxDP=9.49D-02 DE= 2.21D+00 OVMax= 7.51D-01

 Cycle   5  Pass 1  IDiag  1:
 RMSU=  4.90D-04    CP:  9.67D-01  3.79D-01  5.37D-01  2.26D-01
 E= -611.288822556839     Delta-E=       -2.180862722255 Rises=F Damp=F
 DIIS: error= 8.31D-03 at cycle   5 NSaved=   5.
 NSaved= 5 IEnMin= 3 EnMin= -611.317414626498     IErMin= 2 ErrMin= 4.23D-03
 ErrMax= 8.31D-03  0.00D+00 EMaxC= 1.00D-01 BMatC= 2.42D-01 BMatP= 5.39D-02
 IDIUse=3 WtCom= 9.88D-02 WtEn= 9.01D-01
 Coeff-Com: -0.957D-01 0.425D+00 0.417D+00 0.349D-02 0.250D+00
 Coeff-En:   0.000D+00 0.000D+00 0.538D+00 0.000D+00 0.462D+00
 Coeff:     -0.946D-02 0.420D-01 0.526D+00 0.345D-03 0.441D+00
 Gap=     0.135 Goal=   None    Shift=    0.000
 RMSDP=3.62D-04 MaxDP=3.65D-02 DE=-2.18D+00 OVMax= 9.16D-02

 Cycle   6  Pass 1  IDiag  1:
 RMSU=  1.65D-04    CP:  9.69D-01  4.19D-01  8.07D-01  1.09D-01  5.00D-01
 E= -611.446305575001     Delta-E=       -0.157483018162 Rises=F Damp=F
 DIIS: error= 1.37D-03 at cycle   6 NSaved=   6.
 NSaved= 6 IEnMin= 6 EnMin= -611.446305575001     IErMin= 6 ErrMin= 1.37D-03
 ErrMax= 1.37D-03  0.00D+00 EMaxC= 1.00D-01 BMatC= 7.94D-03 BMatP= 5.39D-02
 IDIUse=3 WtCom= 9.86D-01 WtEn= 1.37D-02
 Coeff-Com: -0.254D-01 0.124D+00 0.283D+00-0.759D-02 0.235D+00 0.392D+00
 Coeff-En:   0.000D+00 0.000D+00 0.000D+00 0.000D+00 0.000D+00 0.100D+01
 Coeff:     -0.250D-01 0.122D+00 0.279D+00-0.748D-02 0.231D+00 0.400D+00
 Gap=     0.153 Goal=   None    Shift=    0.000
 RMSDP=7.73D-05 MaxDP=7.64D-03 DE=-1.57D-01 OVMax= 2.12D-02

 Cycle   7  Pass 1  IDiag  1:
 RMSU=  5.10D-05    CP:  9.70D-01  3.99D-01  7.93D-01  1.08D-01  4.91D-01
                    CP:  6.67D-01
 E= -611.451667842344     Delta-E=       -0.005362267343 Rises=F Damp=F
 DIIS: error= 3.98D-04 at cycle   7 NSaved=   7.
 NSaved= 7 IEnMin= 7 EnMin= -611.451667842344     IErMin= 7 ErrMin= 3.98D-04
 ErrMax= 3.98D-04  0.00D+00 EMaxC= 1.00D-01 BMatC= 4.38D-04 BMatP= 7.94D-03
 IDIUse=3 WtCom= 9.96D-01 WtEn= 3.98D-03
 Coeff-Com: -0.471D-02 0.639D-02 0.426D-01-0.523D-03 0.469D-01 0.192D+00
 Coeff-Com:  0.718D+00
 Coeff-En:   0.000D+00 0.000D+00 0.000D+00 0.000D+00 0.000D+00 0.000D+00
 Coeff-En:   0.100D+01
 Coeff:     -0.469D-02 0.636D-02 0.424D-01-0.521D-03 0.467D-01 0.191D+00
 Coeff:      0.719D+00
 Gap=     0.144 Goal=   None    Shift=    0.000
 RMSDP=2.56D-05 MaxDP=2.08D-03 DE=-5.36D-03 OVMax= 6.64D-03

 Cycle   8  Pass 1  IDiag  1:
 RMSU=  1.96D-05    CP:  9.70D-01  4.07D-01  8.00D-01  1.10D-01  5.04D-01
                    CP:  7.41D-01  9.15D-01
 E= -611.451950588511     Delta-E=       -0.000282746167 Rises=F Damp=F
 DIIS: error= 1.69D-04 at cycle   8 NSaved=   8.
 NSaved= 8 IEnMin= 8 EnMin= -611.451950588511     IErMin= 8 ErrMin= 1.69D-04
 ErrMax= 1.69D-04  0.00D+00 EMaxC= 1.00D-01 BMatC= 6.36D-05 BMatP= 4.38D-04
 IDIUse=3 WtCom= 9.98D-01 WtEn= 1.69D-03
 Coeff-Com: -0.161D-02 0.172D-02 0.347D-02 0.319D-03 0.392D-02 0.609D-01
 Coeff-Com:  0.373D+00 0.558D+00
 Coeff-En:   0.000D+00 0.000D+00 0.000D+00 0.000D+00 0.000D+00 0.000D+00
 Coeff-En:   0.784D-01 0.922D+00
 Coeff:     -0.161D-02 0.172D-02 0.346D-02 0.319D-03 0.391D-02 0.608D-01
 Coeff:      0.373D+00 0.559D+00
 Gap=     0.144 Goal=   None    Shift=    0.000
 RMSDP=7.94D-06 MaxDP=8.36D-04 DE=-2.83D-04 OVMax= 2.03D-03

 Cycle   9  Pass 1  IDiag  1:
 RMSU=  6.86D-06    CP:  9.70D-01  4.06D-01  8.00D-01  1.09D-01  5.00D-01
                    CP:  7.43D-01  9.72D-01  9.04D-01
 E= -611.451987580056     Delta-E=       -0.000036991545 Rises=F Damp=F
 DIIS: error= 7.65D-05 at cycle   9 NSaved=   9.
 NSaved= 9 IEnMin= 9 EnMin= -611.451987580056     IErMin= 9 ErrMin= 7.65D-05
 ErrMax= 7.65D-05  0.00D+00 EMaxC= 1.00D-01 BMatC= 1.22D-05 BMatP= 6.36D-05
 IDIUse=1 WtCom= 1.00D+00 WtEn= 0.00D+00
 Coeff-Com: -0.569D-03 0.222D-02-0.343D-02 0.191D-04-0.386D-02 0.148D-01
 Coeff-Com:  0.144D+00 0.349D+00 0.498D+00
 Coeff:     -0.569D-03 0.222D-02-0.343D-02 0.191D-04-0.386D-02 0.148D-01
 Coeff:      0.144D+00 0.349D+00 0.498D+00
 Gap=     0.144 Goal=   None    Shift=    0.000
 RMSDP=2.98D-06 MaxDP=3.01D-04 DE=-3.70D-05 OVMax= 8.84D-04

 Cycle  10  Pass 1  IDiag  1:
 RMSU=  2.08D-06    CP:  9.70D-01  4.06D-01  8.00D-01  1.09D-01  5.00D-01
                    CP:  7.45D-01  9.77D-01  9.47D-01  7.28D-01
 E= -611.451995347107     Delta-E=       -0.000007767051 Rises=F Damp=F
 DIIS: error= 1.65D-05 at cycle  10 NSaved=  10.
 NSaved=10 IEnMin=10 EnMin= -611.451995347107     IErMin=10 ErrMin= 1.65D-05
 ErrMax= 1.65D-05  0.00D+00 EMaxC= 1.00D-01 BMatC= 7.82D-07 BMatP= 1.22D-05
 IDIUse=1 WtCom= 1.00D+00 WtEn= 0.00D+00
 Coeff-Com:  0.200D-03 0.197D-03-0.140D-02 0.373D-04-0.119D-02 0.117D-02
 Coeff-Com:  0.105D-01 0.660D-01 0.225D+00 0.700D+00
 Coeff:      0.200D-03 0.197D-03-0.140D-02 0.373D-04-0.119D-02 0.117D-02
 Coeff:      0.105D-01 0.660D-01 0.225D+00 0.700D+00
 Gap=     0.144 Goal=   None    Shift=    0.000
 RMSDP=8.57D-07 MaxDP=6.85D-05 DE=-7.77D-06 OVMax= 1.79D-04

 Cycle  11  Pass 1  IDiag  1:
 RMSU=  5.64D-07    CP:  9.70D-01  4.06D-01  8.00D-01  1.09D-01  5.00D-01
                    CP:  7.47D-01  9.79D-01  9.51D-01  7.81D-01  8.36D-01
 E= -611.451995892604     Delta-E=       -0.000000545497 Rises=F Damp=F
 DIIS: error= 3.28D-06 at cycle  11 NSaved=  11.
 NSaved=11 IEnMin=11 EnMin= -611.451995892604     IErMin=11 ErrMin= 3.28D-06
 ErrMax= 3.28D-06  0.00D+00 EMaxC= 1.00D-01 BMatC= 3.90D-08 BMatP= 7.82D-07
 IDIUse=1 WtCom= 1.00D+00 WtEn= 0.00D+00
 Coeff-Com:  0.118D-03 0.181D-04-0.589D-03 0.155D-04-0.418D-03 0.301D-03
 Coeff-Com:  0.712D-03 0.225D-01 0.935D-01 0.336D+00 0.548D+00
 Coeff:      0.118D-03 0.181D-04-0.589D-03 0.155D-04-0.418D-03 0.301D-03
 Coeff:      0.712D-03 0.225D-01 0.935D-01 0.336D+00 0.548D+00
 Gap=     0.144 Goal=   None    Shift=    0.000
 RMSDP=2.12D-07 MaxDP=2.02D-05 DE=-5.45D-07 OVMax= 4.02D-05

 Cycle  12  Pass 1  IDiag  1:
 RMSU=  1.90D-07    CP:  9.70D-01  4.06D-01  8.00D-01  1.09D-01  5.00D-01
                    CP:  7.47D-01  9.79D-01  9.51D-01  7.82D-01  8.51D-01
                    CP:  9.00D-01
 E= -611.451995912718     Delta-E=       -0.000000020114 Rises=F Damp=F
 DIIS: error= 2.60D-06 at cycle  12 NSaved=  12.
 NSaved=12 IEnMin=12 EnMin= -611.451995912718     IErMin=12 ErrMin= 2.60D-06
 ErrMax= 2.60D-06  0.00D+00 EMaxC= 1.00D-01 BMatC= 1.24D-08 BMatP= 3.90D-08
 IDIUse=1 WtCom= 1.00D+00 WtEn= 0.00D+00
 Coeff-Com:  0.408D-04 0.264D-04-0.176D-03 0.181D-05-0.944D-04-0.788D-05
 Coeff-Com: -0.138D-02 0.574D-02 0.298D-01 0.122D+00 0.370D+00 0.474D+00
 Coeff:      0.408D-04 0.264D-04-0.176D-03 0.181D-05-0.944D-04-0.788D-05
 Coeff:     -0.138D-02 0.574D-02 0.298D-01 0.122D+00 0.370D+00 0.474D+00
 Gap=     0.144 Goal=   None    Shift=    0.000
 RMSDP=8.91D-08 MaxDP=9.49D-06 DE=-2.01D-08 OVMax= 1.81D-05

 Cycle  13  Pass 1  IDiag  1:
 RMSU=  5.70D-08    CP:  9.70D-01  4.06D-01  8.00D-01  1.09D-01  5.00D-01
                    CP:  7.47D-01  9.80D-01  9.52D-01  7.82D-01  8.56D-01
                    CP:  9.47D-01  6.89D-01
[...]
 Quadrupole moment (field-independent basis, Debye-Ang):
   XX=            -62.4251   YY=            -63.6888   ZZ=            -48.2178
   XY=             -9.0488   XZ=             13.6044   YZ=             -3.0233
 Traceless Quadrupole moment (field-independent basis, Debye-Ang):
   XX=             -4.3145   YY=             -5.5782   ZZ=              9.8928
   XY=             -9.0488   XZ=             13.6044   YZ=             -3.0233
 Octapole moment (field-independent basis, Debye-Ang**2):
  XXX=            -34.1474  YYY=             29.8380  ZZZ=             31.6969  XYY=            -18.4861
  XXY=             30.2059  XXZ=              7.6132  XZZ=            -20.3422  YZZ=             -3.0299
  YYZ=             29.8489  XYZ=             -9.9651
 Hexadecapole moment (field-independent basis, Debye-Ang**3):
 XXXX=          -1647.7376 YYYY=           -974.0033 ZZZZ=           -319.1930 XXXY=              3.6050
 XXXZ=            167.1370 YYYX=            -85.0712 YYYZ=             15.1197 ZZZX=             23.1732
 ZZZY=             67.4442 XXYY=           -429.3068 XXZZ=           -299.5773 YYZZ=           -220.2271
 XXYZ=            -39.5599 YYXZ=             34.6046 ZZXY=              0.4027
 N-N= 4.679858150528D+02 E-N=-2.380726715399D+03  KE= 6.080415056680D+02
 No NMR shielding tensors so no spin-rotation constants.
 Leave Link  601 at Sat Jan 23 23:12:20 2021, MaxMem=  3221225472 cpu:              16.7 elap:               0.8
 (Enter /home/spantaleone/g16/l122.exe)
 CPIOFr:  IOpCl= 0 IRwI=-1 IRwCP=  731 ICalc=  3 LCPTot=     1095373 Len1MO=     2913475 IndFrg=    12749273
 Counterpoise: doing calculation for fragment   2 using the basis set of the fragment.
 Leave Link  122 at Sat Jan 23 23:12:20 2021, MaxMem=  3221225472 cpu:               1.1 elap:               0.1
 (Enter /home/spantaleone/g16/l301.exe)
 Basis read from rwf:  (5D, 7F)
 No pseudopotential information found on rwf file.
 There are   130 symmetry adapted cartesian basis functions of A   symmetry.
 There are   115 symmetry adapted basis functions of A   symmetry.
   115 basis functions,   153 primitive gaussians,   130 cartesian basis functions
     5 alpha electrons        5 beta electrons
       nuclear repulsion energy        11.8936289273 Hartrees.
 IExCor= 3630 DFT=T Ex+Corr=B97D3 ExCW=0 ScaHFX=  0.000000
 ScaDFX=  1.000000  1.000000  1.000000  1.000000 ScalE2=  1.000000  1.000000
 IRadAn=      5 IRanWt=     -1 IRanGd=            0 ICorTp=0 IEmpDi=141
 NAtoms=   28 NActive=    4 NUniq=    4 SFac= 1.00D+00 NAtFMM=   60 NAOKFM=F Big=F
 Integral buffers will be    131072 words long.
 Raffenetti 2 integral format.
 Two-electron integral symmetry is turned on.
 R6Disp:  Grimme-D3(BJ) Dispersion energy=       -0.0026833423 Hartrees.
 Nuclear repulsion after empirical dispersion term =       11.8909455850 Hartrees.
 No density basis found on file   718.
 Leave Link  301 at Sat Jan 23 23:12:20 2021, MaxMem=  3221225472 cpu:               1.0 elap:               0.0
 (Enter /home/spantaleone/g16/l302.exe)
 NPDir=0 NMtPBC=     1 NCelOv=     1 NCel=       1 NClECP=     1 NCelD=      1
         NCelK=      1 NCelE2=     1 NClLst=     1 CellRange=     0.0.
 One-electron integrals computed using PRISM.
 One-electron integral symmetry used in STVInt
 NBasis=   115 RedAO= T EigKep=  2.73D-04  NBF=   115
 NBsUse=   115 1.00D-06 EigRej= -1.00D+00 NBFU=   115
 Precomputing XC quadrature grid using
 IXCGrd= 4 IRadAn=           5 IRanWt=          -1 IRanGd=           0 AccXCQ= 0.00D+00.
 Generated NRdTot=       0 NPtTot=           0 NUsed=           0 NTot=          32
 NSgBfM=   130   130   130   130   130 MxSgAt=     4 MxSgA2=     4.
 Leave Link  302 at Sat Jan 23 23:12:20 2021, MaxMem=  3221225472 cpu:               5.6 elap:               0.2
 (Enter /home/spantaleone/g16/l303.exe)
 DipDrv:  MaxL=1.
 Leave Link  303 at Sat Jan 23 23:12:21 2021, MaxMem=  3221225472 cpu:               0.9 elap:               0.0
 (Enter /home/spantaleone/g16/l401.exe)
 ExpMin= 2.53D-02 ExpMax= 1.14D+04 ExpMxC= 3.89D+02 IAcc=3 IRadAn=         5 AccDes= 0.00D+00
 Harris functional with IExCor= 3630 and IRadAn=       5 diagonalized for initial guess.
 HarFok:  IExCor= 3630 AccDes= 0.00D+00 IRadAn=         5 IDoV= 1 UseB2=F ITyADJ=14
 ICtDFT=  3500011 ScaDFX=  1.000000  1.000000  1.000000  1.000000
 FoFCou: FMM=F IPFlag=           0 FMFlag=      100000 FMFlg1=           0
         NFxFlg=           0 DoJE=T BraDBF=F KetDBF=T FulRan=T
         wScrn=  0.000000 ICntrl=       500 IOpCl=  0 I1Cent=   200000004 NGrid=           0
         NMat0=    1 NMatS0=      1 NMatT0=    0 NMatD0=    1 NMtDS0=    0 NMtDT0=    0
 Petite list used in FoFCou.
 Harris En= -56.5997064114864    
 JPrj=0 DoOrth=F DoCkMO=F.
 Leave Link  401 at Sat Jan 23 23:12:21 2021, MaxMem=  3221225472 cpu:               9.1 elap:               0.4
 (Enter /home/spantaleone/g16/l502.exe)
 Keep J ints in memory in canonical form, NReq=45188355.
 FoFCou: FMM=F IPFlag=           0 FMFlag=           0 FMFlg1=           0
         NFxFlg=           0 DoJE=F BraDBF=F KetDBF=F FulRan=T
         wScrn=  0.000000 ICntrl=       600 IOpCl=  0 I1Cent=           0 NGrid=           0
         NMat0=    1 NMatS0=   6670 NMatT0=    0 NMatD0=    1 NMtDS0=    0 NMtDT0=    0
 Symmetry not used in FoFCou.
 Two-electron integral symmetry not used.
 Closed shell SCF:
 Using DIIS extrapolation, IDIIS=  1040.
 NGot=  3221225472 LenX=  3198938853 LenY=  3198921512
 Requested convergence on RMS density matrix=1.00D-08 within 128 cycles.
 Requested convergence on MAX density matrix=1.00D-06.
 Requested convergence on             energy=1.00D-06.
 No special actions if energy rises.

 Cycle   1  Pass 1  IDiag  1:
 E= -56.4708579743845    
 DIIS: error= 4.03D-02 at cycle   1 NSaved=   1.
 NSaved= 1 IEnMin= 1 EnMin= -56.4708579743845     IErMin= 1 ErrMin= 4.03D-02
 ErrMax= 4.03D-02  0.00D+00 EMaxC= 1.00D-01 BMatC= 1.02D-01 BMatP= 1.02D-01
 IDIUse=3 WtCom= 5.97D-01 WtEn= 4.03D-01
 Coeff-Com:  0.100D+01
 Coeff-En:   0.100D+01
 Coeff:      0.100D+01
 Gap=     0.051 Goal=   None    Shift=    0.000
 GapD=    0.051 DampG=0.500 DampE=0.500 DampFc=0.2500 IDamp=-1.
 Damping current iteration by 2.50D-01
 RMSDP=4.09D-03 MaxDP=7.80D-02              OVMax= 3.68D-01

 Cycle   2  Pass 1  IDiag  1:
 E= -56.5005888210200     Delta-E=       -0.029730846636 Rises=F Damp=T
 DIIS: error= 1.10D-02 at cycle   2 NSaved=   2.
 NSaved= 2 IEnMin= 2 EnMin= -56.5005888210200     IErMin= 2 ErrMin= 1.10D-02
 ErrMax= 1.10D-02  0.00D+00 EMaxC= 1.00D-01 BMatC= 9.17D-03 BMatP= 1.02D-01
 IDIUse=3 WtCom= 8.90D-01 WtEn= 1.10D-01
 Coeff-Com: -0.359D+00 0.136D+01
 Coeff-En:   0.267D-01 0.973D+00
 Coeff:     -0.316D+00 0.132D+01
 Gap=     0.183 Goal=   None    Shift=    0.000
 RMSDP=7.87D-04 MaxDP=3.44D-02 DE=-2.97D-02 OVMax= 2.73D-01

 Cycle   3  Pass 1  IDiag  1:
 E= -56.5552765429822     Delta-E=       -0.054687721962 Rises=F Damp=F
 DIIS: error= 7.56D-04 at cycle   3 NSaved=   3.
 NSaved= 3 IEnMin= 3 EnMin= -56.5552765429822     IErMin= 3 ErrMin= 7.56D-04
 ErrMax= 7.56D-04  0.00D+00 EMaxC= 1.00D-01 BMatC= 4.89D-05 BMatP= 9.17D-03
 IDIUse=3 WtCom= 9.92D-01 WtEn= 7.56D-03
 Coeff-Com: -0.112D-01 0.256D-01 0.986D+00
 Coeff-En:   0.000D+00 0.000D+00 0.100D+01
 Coeff:     -0.111D-01 0.254D-01 0.986D+00
 Gap=     0.201 Goal=   None    Shift=    0.000
 RMSDP=1.15D-04 MaxDP=1.96D-03 DE=-5.47D-02 OVMax= 5.83D-03

 Cycle   4  Pass 1  IDiag  1:
 E= -56.5553102648797     Delta-E=       -0.000033721898 Rises=F Damp=F
 DIIS: error= 5.74D-04 at cycle   4 NSaved=   4.
 NSaved= 4 IEnMin= 4 EnMin= -56.5553102648797     IErMin= 4 ErrMin= 5.74D-04
 ErrMax= 5.74D-04  0.00D+00 EMaxC= 1.00D-01 BMatC= 2.02D-05 BMatP= 4.89D-05
 IDIUse=3 WtCom= 9.94D-01 WtEn= 5.74D-03
 Coeff-Com:  0.126D-01-0.146D-01 0.221D+00 0.781D+00
 Coeff-En:   0.000D+00 0.000D+00 0.170D+00 0.830D+00
 Coeff:      0.125D-01-0.145D-01 0.221D+00 0.781D+00
 Gap=     0.203 Goal=   None    Shift=    0.000
 RMSDP=2.39D-05 MaxDP=7.68D-04 DE=-3.37D-05 OVMax= 1.89D-03

 Cycle   5  Pass 1  IDiag  1:
 E= -56.5553289426625     Delta-E=       -0.000018677783 Rises=F Damp=F
 DIIS: error= 1.33D-04 at cycle   5 NSaved=   5.
 NSaved= 5 IEnMin= 5 EnMin= -56.5553289426625     IErMin= 5 ErrMin= 1.33D-04
 ErrMax= 1.33D-04  0.00D+00 EMaxC= 1.00D-01 BMatC= 7.22D-07 BMatP= 2.02D-05
 IDIUse=3 WtCom= 9.99D-01 WtEn= 1.33D-03
 Coeff-Com:  0.597D-02-0.616D-02 0.434D-01 0.239D+00 0.718D+00
 Coeff-En:   0.000D+00 0.000D+00 0.000D+00 0.000D+00 0.100D+01
 Coeff:      0.596D-02-0.615D-02 0.434D-01 0.239D+00 0.718D+00
 Gap=     0.203 Goal=   None    Shift=    0.000
 RMSDP=4.99D-06 MaxDP=9.72D-05 DE=-1.87D-05 OVMax= 3.19D-04

 Cycle   6  Pass 1  IDiag  1:
 E= -56.5553296087091     Delta-E=       -0.000000666047 Rises=F Damp=F
 DIIS: error= 1.09D-05 at cycle   6 NSaved=   6.
 NSaved= 6 IEnMin= 6 EnMin= -56.5553296087091     IErMin= 6 ErrMin= 1.09D-05
 ErrMax= 1.09D-05  0.00D+00 EMaxC= 1.00D-01 BMatC= 6.95D-09 BMatP= 7.22D-07
 IDIUse=1 WtCom= 1.00D+00 WtEn= 0.00D+00
 Coeff-Com:  0.218D-03-0.207D-03 0.180D-02-0.549D-02-0.544D-02 0.101D+01
 Coeff:      0.218D-03-0.207D-03 0.180D-02-0.549D-02-0.544D-02 0.101D+01
 Gap=     0.203 Goal=   None    Shift=    0.000
 RMSDP=7.15D-07 MaxDP=1.26D-05 DE=-6.66D-07 OVMax= 3.73D-05

 Cycle   7  Pass 1  IDiag  1:
 E= -56.5553296153510     Delta-E=       -0.000000006642 Rises=F Damp=F
 DIIS: error= 8.07D-07 at cycle   7 NSaved=   7.
 NSaved= 7 IEnMin= 7 EnMin= -56.5553296153510     IErMin= 7 ErrMin= 8.07D-07
 ErrMax= 8.07D-07  0.00D+00 EMaxC= 1.00D-01 BMatC= 5.18D-11 BMatP= 6.95D-09
 IDIUse=1 WtCom= 1.00D+00 WtEn= 0.00D+00
 Coeff-Com:  0.856D-05-0.634D-05 0.946D-04-0.298D-02-0.764D-02 0.208D+00
 Coeff-Com:  0.802D+00
 Coeff:      0.856D-05-0.634D-05 0.946D-04-0.298D-02-0.764D-02 0.208D+00
 Coeff:      0.802D+00
 Gap=     0.203 Goal=   None    Shift=    0.000
 RMSDP=5.49D-08 MaxDP=1.43D-06 DE=-6.64D-09 OVMax= 3.88D-06

 Cycle   8  Pass 1  IDiag  1:
 E= -56.5553296153982     Delta-E=       -0.000000000047 Rises=F Damp=F
 DIIS: error= 3.18D-07 at cycle   8 NSaved=   8.
 NSaved= 8 IEnMin= 8 EnMin= -56.5553296153982     IErMin= 8 ErrMin= 3.18D-07
 ErrMax= 3.18D-07  0.00D+00 EMaxC= 1.00D-01 BMatC= 5.92D-12 BMatP= 5.18D-11
 IDIUse=1 WtCom= 1.00D+00 WtEn= 0.00D+00
 Coeff-Com: -0.579D-05 0.458D-05-0.649D-04-0.141D-03-0.105D-02-0.183D-01
 Coeff-Com:  0.269D+00 0.751D+00
 Coeff:     -0.579D-05 0.458D-05-0.649D-04-0.141D-03-0.105D-02-0.183D-01
 Coeff:      0.269D+00 0.751D+00
 Gap=     0.203 Goal=   None    Shift=    0.000
 RMSDP=1.47D-08 MaxDP=4.72D-07 DE=-4.72D-11 OVMax= 1.04D-06

 Cycle   9  Pass 1  IDiag  1:
 E= -56.5553296154040     Delta-E=       -0.000000000006 Rises=F Damp=F
 DIIS: error= 1.37D-08 at cycle   9 NSaved=   9.
 NSaved= 9 IEnMin= 9 EnMin= -56.5553296154040     IErMin= 9 ErrMin= 1.37D-08
 ErrMax= 1.37D-08  0.00D+00 EMaxC= 1.00D-01 BMatC= 1.49D-14 BMatP= 5.92D-12
 IDIUse=1 WtCom= 1.00D+00 WtEn= 0.00D+00
 Coeff-Com: -0.892D-07-0.195D-06-0.198D-05 0.269D-04 0.339D-04-0.221D-02
 Coeff-Com:  0.201D-01 0.699D-01 0.912D+00
 Coeff:     -0.892D-07-0.195D-06-0.198D-05 0.269D-04 0.339D-04-0.221D-02
 Coeff:      0.201D-01 0.699D-01 0.912D+00
 Gap=     0.203 Goal=   None    Shift=    0.000
 RMSDP=1.29D-09 MaxDP=2.67D-08 DE=-5.81D-12 OVMax= 4.18D-08

 SCF Done:  E(RB97D3) =  -56.5553296154     A.U. after    9 cycles
            NFock=  9  Conv=0.13D-08     -V/T= 2.0063
 KE= 5.620245669192D+01 PE=-1.557885457922D+02 EE= 3.113981389981D+01
 Leave Link  502 at Sat Jan 23 23:12:22 2021, MaxMem=  3221225472 cpu:              31.1 elap:               1.5
 (Enter /home/spantaleone/g16/l601.exe)
 Copying SCF densities to generalized density rwf, IOpCl= 0 IROHF=0.

 **********************************************************************

            Population analysis using the SCF Density.

 **********************************************************************

 Orbital symmetries:
       Occupied  (A) (A) (A) (A) (A)
       Virtual   (A) (A) (A) (A) (A) (A) (A) (A) (A) (A) (A) (A)
                 (A) (A) (A) (A) (A) (A) (A) (A) (A) (A) (A) (A)
                 (A) (A) (A) (A) (A) (A) (A) (A) (A) (A) (A) (A)
                 (A) (A) (A) (A) (A) (A) (A) (A) (A) (A) (A) (A)
                 (A) (A) (A) (A) (A) (A) (A) (A) (A) (A) (A) (A)
                 (A) (A) (A) (A) (A) (A) (A) (A) (A) (A) (A) (A)
                 (A) (A) (A) (A) (A) (A) (A) (A) (A) (A) (A) (A)
                 (A) (A) (A) (A) (A) (A) (A) (A) (A) (A) (A) (A)
                 (A) (A) (A) (A) (A) (A) (A) (A) (A) (A) (A) (A)
                 (A) (A)
 The electronic state is 1-A.
 Alpha  occ. eigenvalues --  -13.97760  -0.78014  -0.41716  -0.41413  -0.22686
 Alpha virt. eigenvalues --   -0.02403   0.02167   0.02182   0.06362   0.08397
 Alpha virt. eigenvalues --    0.11077   0.11117   0.11627   0.11707   0.15650
 Alpha virt. eigenvalues --    0.15711   0.16523   0.25951   0.28712   0.29557
 Alpha virt. eigenvalues --    0.29578   0.32139   0.32279   0.32282   0.38133
 Alpha virt. eigenvalues --    0.38166   0.43507   0.46557   0.46668   0.56735
 Alpha virt. eigenvalues --    0.61029   0.61201   0.64683   0.70824   0.76475
 Alpha virt. eigenvalues --    0.76545   0.76669   0.81762   0.81814   0.86940
 Alpha virt. eigenvalues --    0.88713   0.88780   0.94387   0.94852   0.94940
 Alpha virt. eigenvalues --    0.99093   0.99099   1.01940   1.05906   1.06155
 Alpha virt. eigenvalues --    1.11361   1.15947   1.16197   1.37996   1.50413
 Alpha virt. eigenvalues --    1.50573   1.51860   1.58796   1.60009   1.60107
 Alpha virt. eigenvalues --    1.73120   1.74432   1.74912   1.79458   1.79649
 Alpha virt. eigenvalues --    1.96062   2.08866   2.09195   2.09502   2.12955
 Alpha virt. eigenvalues --    2.13143   2.14547   2.98370   3.14747   3.14880
 Alpha virt. eigenvalues --    3.55372   3.58797   3.59107   3.76188   3.76334
 Alpha virt. eigenvalues --    3.78008   3.81876   3.82148   3.84381   3.92753
 Alpha virt. eigenvalues --    3.92971   3.93588   4.06953   4.09746   4.09985
 Alpha virt. eigenvalues --    4.24767   4.30835   4.31046   4.54915   4.55244
 Alpha virt. eigenvalues --    4.59566   4.59668   4.61802   4.61898   4.75554
 Alpha virt. eigenvalues --    5.13774   5.14457   5.24026   5.37638   5.38380
 Alpha virt. eigenvalues --    5.50158   5.80029   5.82033   5.91097   6.08934
 Alpha virt. eigenvalues --    6.39645   6.40636   7.11170   7.11905  16.13664
          Condensed to atoms (all electrons):
              25         26         27         28
    25  N    6.464415   0.309328   0.308829   0.309861
    26  H    0.309328   0.575992  -0.007498  -0.008174
    27  H    0.308829  -0.007498   0.574101  -0.007652
    28  H    0.309861  -0.008174  -0.007652   0.576104
 Mulliken charges:
               1
     1  H    0.000000
     2  O    0.000000
     3  H    0.000000
     4  H    0.000000
     5  O    0.000000
     6  H    0.000000
     7  H    0.000000
     8  O    0.000000
     9  H    0.000000
    10  H    0.000000
    11  O    0.000000
    12  H    0.000000
    13  H    0.000000
    14  O    0.000000
    15  H    0.000000
    16  H    0.000000
    17  O    0.000000
    18  H    0.000000
    19  H    0.000000
    20  O    0.000000
    21  H    0.000000
    22  H    0.000000
    23  O    0.000000
    24  H    0.000000
    25  N   -0.392433
    26  H    0.130351
    27  H    0.132220
    28  H    0.129861
 Sum of Mulliken charges =  -0.00000
 Mulliken charges with hydrogens summed into heavy atoms:
               1
     2  O    0.000000
     5  O    0.000000
     8  O    0.000000
    11  O    0.000000
    14  O    0.000000
    17  O    0.000000
    20  O    0.000000
    23  O    0.000000
    25  N   -0.000000
         Mulliken charges condensed to fragments:
      1      0.000000
      2     -0.000000
 Electronic spatial extent (au):  <R**2>=            262.6113
 Charge=             -0.0000 electrons
 Dipole moment (field-independent basis, Debye):
    X=              1.1210    Y=              0.0791    Z=              0.9246  Tot=              1.4552
 Quadrupole moment (field-independent basis, Debye-Ang):
   XX=             -8.5917   YY=             -6.2550   ZZ=             -3.2681
   XY=              0.9905   XZ=              0.9516   YZ=              1.0218
 Traceless Quadrupole moment (field-independent basis, Debye-Ang):
   XX=             -2.5534   YY=             -0.2168   ZZ=              2.7702
   XY=              0.9905   XZ=              0.9516   YZ=              1.0218
 Octapole moment (field-independent basis, Debye-Ang**2):
  XXX=              5.4383  YYY=            -19.3140  ZZZ=            -37.2424  XYY=              3.1716
  XXY=             -8.6657  XXZ=            -19.4742  XZZ=             -0.5764  YZZ=             -3.2221
  YYZ=            -14.2805  XYZ=              0.5409
 Hexadecapole moment (field-independent basis, Debye-Ang**3):
 XXXX=            -15.4725 YYYY=            -50.3654 ZZZZ=           -205.7321 XXXY=              5.4548
 XXXZ=             12.0508 YYYX=              7.6878 YYYZ=            -45.8681 ZZZX=             -6.3982
 ZZZY=            -37.4427 XXYY=            -13.0885 XXZZ=            -48.3375 YYZZ=            -44.3478
 XXYZ=            -19.6308 YYXZ=              5.2453 ZZXY=             -1.8024
 N-N= 1.189094558504D+01 E-N=-1.557885450783D+02  KE= 5.620245669192D+01
 No NMR shielding tensors so no spin-rotation constants.
 Leave Link  601 at Sat Jan 23 23:12:23 2021, MaxMem=  3221225472 cpu:               4.5 elap:               0.2
 (Enter /home/spantaleone/g16/l122.exe)
 CPIOFr:  IOpCl= 0 IRwI=-1 IRwCP=  731 ICalc=  4 LCPTot=     1095373 Len1MO=     2913475 IndFrg=    15662748
 Restoring MOs from calculation   1 to rwf.
 CPIOFr:  IOpCl= 0 IRwI=-2 IRwCP=  731 ICalc=  0 LCPTot=     1095373 Len1MO=     2913475 IndFrg=     4008848
 Counterpoise corrected energy =    -668.032509076270
                   BSSE energy =       0.000337677938
              sum of fragments =    -668.007108184033
           complexation energy =     -16.15 kcal/mole (raw)
           complexation energy =     -15.94 kcal/mole (corrected)
 Leave Link  122 at Sat Jan 23 23:12:23 2021, MaxMem=  3221225472 cpu:               2.3 elap:               0.1
 (Enter /home/spantaleone/g16/l9999.exe)
 1\1\GINC-N1385\SP\RB97D3\Aug-CC-pVTZ\H19N1O8\SPANTALEONE\23-Jan-2021\0
 \\#P B97D3/aug-cc-pvtz Counterpoise=2\\Title\\0,1\H,0,1.650221,-6.6569
 31,-3.058672\O,0,1.422475,-6.839647,-3.999484\H,0,2.295998,-7.00572,-4
 .398732\H,0,2.679839,-5.762981,-1.432158\O,0,1.854809,-6.289037,-1.346
 594\H,0,1.132275,-5.605239,-1.267807\H,0,-0.248575,-7.542133,-3.278882
 \O,0,-0.957049,-7.717724,-2.633367\H,0,-0.498165,-7.819376,-1.789\H,0,
 0.64687,-8.054117,0.827916\O,0,-0.245908,-8.353565,0.544045\H,0,-0.731
 232,-8.380794,1.400274\H,0,3.061673,-7.436594,1.102177\O,0,2.149909,-7
 .110553,1.113787\H,0,2.052517,-6.78158,0.17169\H,0,4.192398,-7.972204,
 -0.957937\O,0,4.661208,-7.434286,-0.277521\H,0,5.098528,-6.761492,-0.8
 32419\H,0,-1.308015,-6.928725,0.243842\O,0,-1.912769,-6.177972,0.05483
 8\H,0,-2.513726,-6.509442,-0.62837\H,0,2.654,-9.31788,-2.166291\O,0,3.
 588133,-8.995729,-2.320302\H,0,3.54785,-8.418212,-3.095334\N,0,1.10510
 8,-10.124564,-1.731351\H,0,0.393179,-10.003592,-2.447011\H,0,0.681501,
 -9.821783,-0.854329\H,0,1.285222,-11.120882,-1.651326\\Version=ES64L-G
 16RevB.01\State=1-A\HF=-56.5553296\RMSD=1.292e-09\Dipole=1.1480946,-0.
 0328756,-0.7742709\Quadrupole=-6.0846647,6.7225979,-0.6379332,11.68590
 58,-7.5621774,-4.6788026\PG=C01 [X(H19N1O8)]\\@


 EVANS BOLDLY PUT 50 ATM. OF ETHYLENE IN A CELL WITH 25 ATM. OF OXYGEN.
 THE APPARATUS SUBSEQUENTLY BLEW UP, BUT LUCKILY NOT BEFORE HE
 OBTAINED THE SPECTRA SHOWN IN FIGURE 8.
 A.J.MERER AND R.S.MULLIKEN, CHEM.REV. 69, 645 (1969)
 Job cpu time:       0 days  8 hours 50 minutes 20.2 seconds.
 Elapsed time:       0 days  0 hours 22 minutes  8.4 seconds.
 File lengths (MBytes):  RWF=    538 Int=      0 D2E=      0 Chk=    160 Scr=      1
 Normal termination of Gaussian 16 at Sat Jan 23 23:12:23 2021.
