
                                 *****************
                                 * O   R   C   A *
                                 *****************

           --- An Ab Initio, DFT and Semiempirical electronic structure package ---

                  #######################################################
                  #                        -***-                        #
                  #          Department of theory and spectroscopy      #
                  #               Directorship: Frank Neese             #
                  #        Max Planck Institute fuer Kohlenforschung    #
                  #                Kaiser Wilhelm Platz 1               #
                  #                 D-45470 Muelheim/Ruhr               #
                  #                      Germany                        #
                  #                                                     #
                  #                  All rights reserved                #
                  #                        -***-                        #
                  #######################################################


                         Program Version 4.2.1 -  RELEASE  -


 With contributions from (in alphabetic order):
   Daniel Aravena         : Magnetic Suceptibility
   Michael Atanasov       : Ab Initio Ligand Field Theory (pilot matlab implementation)
   Alexander A. Auer      : GIAO ZORA, VPT2
   Ute Becker             : Parallelization
   Giovanni Bistoni       : ED, misc. LED, open-shell LED, HFLD
   Martin Brehm           : Molecular dynamics
   Dmytro Bykov           : SCF Hessian
   Vijay G. Chilkuri      : MRCI spin determinant printing, contributions to CSF-ICE
   Dipayan Datta          : RHF DLPNO-CCSD density
   Achintya Kumar Dutta   : EOM-CC, STEOM-CC
   Dmitry Ganyushin       : Spin-Orbit,Spin-Spin,Magnetic field MRCI
   Miquel Garcia          : C-PCM Hessian, Gaussian charge scheme
   Yang Guo               : DLPNO-NEVPT2, CIM, IAO-localization
   Andreas Hansen         : Spin unrestricted coupled pair/coupled cluster methods
   Benjamin Helmich-Paris : CASSCF linear response (MC-RPA)
   Lee Huntington         : MR-EOM, pCC
   Robert Izsak           : Overlap fitted RIJCOSX, COSX-SCS-MP3, EOM
   Christian Kollmar      : KDIIS, OOCD, Brueckner-CCSD(T), CCSD density
   Simone Kossmann        : Meta GGA functionals, TD-DFT gradient, OOMP2, MP2 Hessian
   Martin Krupicka        : AUTO-CI
   Lucas Lang             : DCDCAS
   Dagmar Lenk            : GEPOL surface, SMD
   Dimitrios Liakos       : Extrapolation schemes; Compound Job, initial MDCI parallelization
   Dimitrios Manganas     : Further ROCIS development; embedding schemes
   Dimitrios Pantazis     : SARC Basis sets
   Taras Petrenko         : DFT Hessian,TD-DFT gradient, ASA, ECA, R-Raman, ABS, FL, XAS/XES, NRVS
   Peter Pinski           : DLPNO-MP2, DLPNO-MP2 Gradient
   Christoph Reimann      : Effective Core Potentials
   Marius Retegan         : Local ZFS, SOC
   Christoph Riplinger    : Optimizer, TS searches, QM/MM, DLPNO-CCSD(T), (RO)-DLPNO pert. Triples
   Tobias Risthaus        : Range-separated hybrids, TD-DFT gradient, RPA, STAB
   Michael Roemelt        : Original ROCIS implementation
   Masaaki Saitow         : Open-shell DLPNO-CCSD energy and density
   Barbara Sandhoefer     : DKH picture change effects
   Avijit Sen             : IP-ROCIS
   Kantharuban Sivalingam : CASSCF convergence, NEVPT2, FIC-MRCI
   Bernardo de Souza      : ESD, SOC TD-DFT
   Georgi Stoychev        : AutoAux, RI-MP2 NMR
   Willem Van den Heuvel  : Paramagnetic NMR
   Boris Wezisla          : Elementary symmetry handling
   Frank Wennmohs         : Technical directorship


 We gratefully acknowledge several colleagues who have allowed us to
 interface, adapt or use parts of their codes:
   Stefan Grimme, W. Hujo, H. Kruse,             : VdW corrections, initial TS optimization,
                  C. Bannwarth                     DFT functionals, gCP, sTDA/sTD-DF
   Ed Valeev, F. Pavosevic, A. Kumar             : LibInt (2-el integral package), F12 methods
   Garnet Chan, S. Sharma, J. Yang, R. Olivares  : DMRG
   Ulf Ekstrom                                   : XCFun DFT Library
   Mihaly Kallay                                 : mrcc  (arbitrary order and MRCC methods)
   Andreas Klamt, Michael Diedenhofen            : otool_cosmo (COSMO solvation model)
   Jiri Pittner, Ondrej Demel                    : Mk-CCSD
   Frank Weinhold                                : gennbo (NPA and NBO analysis)
   Christopher J. Cramer and Donald G. Truhlar   : smd solvation model
   Lars Goerigk                                  : TD-DFT with DH, B97 family of functionals
   V. Asgeirsson, H. Jonsson                     : NEB implementation
   FAccTs GmbH                                   : IRC, NEB, NEB-TS, Multilevel, MM, QM/MM, CI optimization
   S Lehtola, MJT Oliveira, MAL Marques          : LibXC Library


 Your calculation uses the libint2 library for the computation of 2-el integrals
 For citations please refer to: http://libint.valeyev.net

 Your ORCA version has been built with support for libXC version: 4.2.3
 For citations please refer to: https://tddft.org/programs/libxc/

 This ORCA versions uses:
   CBLAS   interface :  Fast vector & matrix operations
   LAPACKE interface :  Fast linear algebra routines
   SCALAPACK package :  Parallel linear algebra routines


----- Orbital basis set information -----
Your calculation utilizes the basis: aug-cc-pVTZ 
    H, B-Ne : Obtained from the ccRepo (grant-hill.group.shef.ac.uk/ccrepo) Feb. 2017
              R. A. Kendall, T. H. Dunning, Jr., R. J. Harrison, J. Chem. Phys. 96, 6796 (1992)
         He : Obtained from the ccRepo (grant-hill.group.shef.ac.uk/ccrepo) Feb. 2017
              D. E. Woon, T. H. Dunning, Jr., J. Chem. Phys. 100, 2975 (1994)
  Li-Be, Na : Obtained from the ccRepo (grant-hill.group.shef.ac.uk/ccrepo) Feb. 2017
              B. P. Prascher, D. E. Woon, K. A. Peterson, T. H. Dunning, Jr., A. K. Wilson, Theor. Chem. Acc. 128, 69 (2011)
         Mg : Obtained from the Peterson Research Group Website (tyr0.chem.wsu.edu/~kipeters) Feb. 2017
              B. P. Prascher, D. E. Woon, K. A. Peterson, T. H. Dunning, Jr., A. K. Wilson, Theor. Chem. Acc. 128, 69 (2011)
      Al-Ar : Obtained from the ccRepo (grant-hill.group.shef.ac.uk/ccrepo) Feb. 2017
              D. E. Woon, T. H. Dunning, Jr., J. Chem. Phys. 98, 1358 (1993)
      Sc-Zn : Obtained from the ccRepo (grant-hill.group.shef.ac.uk/ccrepo) Feb. 2017
              N. B. Balabanov, K. A. Peterson, J. Chem. Phys. 123, 064107 (2005)
              N. B. Balabanov, K. A. Peterson, J. Chem. Phys. 125, 074110 (2006)
      Ga-Kr : Obtained from the ccRepo (grant-hill.group.shef.ac.uk/ccrepo) Feb. 2017
              A. K. Wilson, D. E. Woon, K. A. Peterson, T. H. Dunning, Jr., J. Chem. Phys. 110, 7667 (1999)
     Ag, Au : Obtained from the Peterson Research Group Website (tyr0.chem.wsu.edu/~kipeters) Feb. 2017
              K. A. Peterson, C. Puzzarini, Theor. Chem. Acc. 114, 283 (2005)

----- AuxC basis set information -----
Your calculation utilizes the auxiliary basis: aug-cc-pVTZ/C 
  H-He, B-F, Al-Ar, Ga-Kr : Obtained from the EMSL Basis Set Exchange (bse.pnl.gov) Feb. 2017
                            F. Weigend, A. Kohn, C. Hattig, J. Chem. Phys. 116, 3175 (2002)
                   Be, Mg : Obtained from the TURBOMOLE 7.0 basis set library
                            C. Haettig, Phys. Chem. Chem. Phys. 7, 59 (2005)
                       Ne : Obtained from the EMSL Basis Set Exchange (bse.pnl.gov) Feb. 2017
                            C. Haettig, Phys. Chem. Chem. Phys. 7, 59 (2005)
                            F. Weigend, A. Kohn, C. Hattig, J. Chem. Phys. 116, 3175 (2002)
                    Sc-Zn : Obtained from the EMSL Basis Set Exchange (bse.pnl.gov) Feb. 2017
                            J. G. Hill, J. A. Platts, J. Chem. Phys. 128, 044104 (2008)

================================================================================
                                        WARNINGS
                       Please study these warnings very carefully!
================================================================================


WARNING: MDCI localization with Augmented Hessian Foster-Boys
  ===> : Switching off randomization!

WARNING: Post HF methods need fully converged wavefunctions
  ===> : Setting SCFConvForced true
         You can overwrite this default with %scf ConvForced false 


INFO   : the flag for use of LIBINT has been found!

================================================================================
                                       INPUT FILE
================================================================================
NAME = DLPNO_Cluster_TDP46.inp
|  1> ! DLPNO-CCSD(T) aug-cc-pVTZ aug-cc-pVTZ/C TightPNO
|  2> %maxcore 2000
|  3> %pal
|  4> nprocs 10
|  5> end
|  6> # Title
|  7> *xyz 0 1
|  8> H     1.572529    -6.622418    -3.188107
|  9> O     1.361848    -6.841755    -4.125554
| 10> H     2.242524    -6.958400    -4.523981
| 11> H     2.614797    -5.782340    -1.531590
| 12> O     1.804052    -6.330909    -1.465409
| 13> H     1.059591    -5.667907    -1.370477
| 14> H    -0.291971    -7.657638    -3.339038
| 15> O    -1.020126    -7.725450    -2.701096
| 16> H    -0.644829    -8.116996    -1.899317
| 17> H     0.508747    -8.189942     0.584227
| 18> O    -0.403824    -8.406992     0.307107
| 19> H    -0.870653    -8.435209     1.174544
| 20> H     2.966184    -7.594562     1.008128
| 21> O     2.070666    -7.233873     0.985858
| 22> H     2.003148    -6.882716     0.052299
| 23> H     4.103329    -7.980646    -1.178268
| 24> O     4.608380    -7.517131    -0.483256
| 25> H     5.058626    -6.826256    -1.006553
| 26> H    -1.365729    -6.944841     0.056575
| 27> O    -1.968956    -6.179535    -0.085626
| 28> H    -2.559009    -6.471420    -0.795637
| 29> H     2.533947    -8.845812    -2.814647
| 30> O     3.497068    -8.925161    -2.804387
| 31> H     3.756768    -8.340672    -3.538052
| 32> *
| 33> 
| 34> 
| 35>                          ****END OF INPUT****
================================================================================

                       ****************************
                       * Single Point Calculation *
                       ****************************

---------------------------------
CARTESIAN COORDINATES (ANGSTROEM)
---------------------------------
  H      1.572529   -6.622418   -3.188107
  O      1.361848   -6.841755   -4.125554
  H      2.242524   -6.958400   -4.523981
  H      2.614797   -5.782340   -1.531590
  O      1.804052   -6.330909   -1.465409
  H      1.059591   -5.667907   -1.370477
  H     -0.291971   -7.657638   -3.339038
  O     -1.020126   -7.725450   -2.701096
  H     -0.644829   -8.116996   -1.899317
  H      0.508747   -8.189942    0.584227
  O     -0.403824   -8.406992    0.307107
  H     -0.870653   -8.435209    1.174544
  H      2.966184   -7.594562    1.008128
  O      2.070666   -7.233873    0.985858
  H      2.003148   -6.882716    0.052299
  H      4.103329   -7.980646   -1.178268
  O      4.608380   -7.517131   -0.483256
  H      5.058626   -6.826256   -1.006553
  H     -1.365729   -6.944841    0.056575
  O     -1.968956   -6.179535   -0.085626
  H     -2.559009   -6.471420   -0.795637
  H      2.533947   -8.845812   -2.814647
  O      3.497068   -8.925161   -2.804387
  H      3.756768   -8.340672   -3.538052

----------------------------
CARTESIAN COORDINATES (A.U.)
----------------------------
  NO LB      ZA    FRAG     MASS         X           Y           Z
   0 H     1.0000    0     1.008    2.971649  -12.514556   -6.024649
   1 O     8.0000    0    15.999    2.573520  -12.929043   -7.796167
   2 H     1.0000    0     1.008    4.237756  -13.149470   -8.549085
   3 H     1.0000    0     1.008    4.941250  -10.927039   -2.894286
   4 O     8.0000    0    15.999    3.409164  -11.963684   -2.769222
   5 H     1.0000    0     1.008    2.002337  -10.710792   -2.589826
   6 H     1.0000    0     1.008   -0.551745  -14.470839   -6.309867
   7 O     8.0000    0    15.999   -1.927759  -14.598985   -5.104332
   8 H     1.0000    0     1.008   -1.218550  -15.338899   -3.589189
   9 H     1.0000    0     1.008    0.961393  -15.476747    1.104029
  10 O     8.0000    0    15.999   -0.763117  -15.886912    0.580348
  11 H     1.0000    0     1.008   -1.645296  -15.940235    2.219566
  12 H     1.0000    0     1.008    5.605275  -14.351642    1.905086
  13 O     8.0000    0    15.999    3.912992  -13.670039    1.863002
  14 H     1.0000    0     1.008    3.785401  -13.006448    0.098831
  15 H     1.0000    0     1.008    7.754168  -15.081235   -2.226604
  16 O     8.0000    0    15.999    8.708576  -14.205319   -0.913221
  17 H     1.0000    0     1.008    9.559418  -12.899754   -1.902110
  18 H     1.0000    0     1.008   -2.580854  -13.123848    0.106911
  19 O     8.0000    0    15.999   -3.720788  -11.677629   -0.161810
  20 H     1.0000    0     1.008   -4.835826  -12.229211   -1.503536
  21 H     1.0000    0     1.008    4.788466  -16.716162   -5.318912
  22 O     8.0000    0    15.999    6.608501  -16.866110   -5.299523
  23 H     1.0000    0     1.008    7.099263  -15.761586   -6.685949

--------------------------------
INTERNAL COORDINATES (ANGSTROEM)
--------------------------------
 H      0   0   0     0.000000000000     0.00000000     0.00000000
 O      1   0   0     0.985546590040     0.00000000     0.00000000
 H      2   1   0     0.973622281652   102.85880088     0.00000000
 H      1   2   3     2.129812715052   158.78248248    36.23963934
 O      4   1   2     0.981129618117    55.07808015   180.37932903
 H      5   4   1     1.001401975806   104.50895969   261.70705626
 H      2   1   3     2.004841582945    83.90081488   149.38799302
 O      7   2   1     0.970452557693   154.86093463    33.27703907
 H      8   7   2     0.967990533614   106.37057778   282.09713394
 H      9   8   7     2.739352023130   157.66590625    93.32750403
 O     10   9   8     0.978106347460    49.92022688   107.80536235
 H     11  10   9     0.985480828479   101.47471882   194.06229068
 H     10   9   8     2.563818638510   123.18576231   286.75072677
 O     13  10   9     0.965683693528    36.29903921    92.28639656
 H     14  13  10     0.999701118062   102.43694810   266.42915346
 H     13  10   9     2.494491345925   104.83796063   335.94226418
 O     16  13  10     0.976198928482    62.50536393   169.13465665
 H     17  16  13     0.976662416780   101.12307313   220.75205213
 H     11  10   9     1.768025186147   111.36038667   281.74791032
 O     19  11  10     0.984782824569   175.14191979   192.36513932
 H     20  19  11     0.968232934864   104.17635102   314.81303795
 H     16  13  10     2.426769107501   110.57261841   357.47416398
 O     22  16  13     0.966438612661    51.51105495   202.62930001
 H     23  22  16     0.973311776023   102.04017992   250.82302975

---------------------------
INTERNAL COORDINATES (A.U.)
---------------------------
 H      0   0   0     0.000000000000     0.00000000     0.00000000
 O      1   0   0     1.862413147395     0.00000000     0.00000000
 H      2   1   0     1.839879470207   102.85880088     0.00000000
 H      1   2   3     4.024762747991   158.78248248    36.23963934
 O      4   1   2     1.854066280120    55.07808015   180.37932903
 H      5   4   1     1.892375484242   104.50895969   261.70705626
 H      2   1   3     3.788601533663    83.90081488   149.38799302
 O      7   2   1     1.833889560003   154.86093463    33.27703907
 H      8   7   2     1.829237008758   106.37057778   282.09713394
 H      9   8   7     5.176625108119   157.66590625    93.32750403
 O     10   9   8     1.848353126549    49.92022688   107.80536235
 H     11  10   9     1.862288876055   101.47471882   194.06229068
 H     10   9   8     4.844915083826   123.18576231   286.75072677
 O     13  10   9     1.824877712761    36.29903921    92.28639656
 H     14  13  10     1.889161328912   102.43694810   266.42915346
 H     13  10   9     4.713905487236   104.83796063   335.94226418
 O     16  13  10     1.844748627059    62.50536393   169.13465665
 H     17  16  13     1.845624493007   101.12307313   220.75205213
 H     11  10   9     3.341083399693   111.36038667   281.74791032
 O     19  11  10     1.860969839825   175.14191979   192.36513932
 H     20  19  11     1.829695080735   104.17635102   314.81303795
 H     16  13  10     4.585929003437   110.57261841   357.47416398
 O     22  16  13     1.826304303176    51.51105495   202.62930001
 H     23  22  16     1.839292699605   102.04017992   250.82302975

---------------------
BASIS SET INFORMATION
---------------------
There are 2 groups of distinct atoms

 Group   1 Type H   : 6s3p2d contracted to 4s3p2d pattern {3111/111/11}
 Group   2 Type O   : 19s6p3d2f contracted to 5s4p3d2f pattern {88111/3111/111/11}

Atom   0H    basis set group =>   1
Atom   1O    basis set group =>   2
Atom   2H    basis set group =>   1
Atom   3H    basis set group =>   1
Atom   4O    basis set group =>   2
Atom   5H    basis set group =>   1
Atom   6H    basis set group =>   1
Atom   7O    basis set group =>   2
Atom   8H    basis set group =>   1
Atom   9H    basis set group =>   1
Atom  10O    basis set group =>   2
Atom  11H    basis set group =>   1
Atom  12H    basis set group =>   1
Atom  13O    basis set group =>   2
Atom  14H    basis set group =>   1
Atom  15H    basis set group =>   1
Atom  16O    basis set group =>   2
Atom  17H    basis set group =>   1
Atom  18H    basis set group =>   1
Atom  19O    basis set group =>   2
Atom  20H    basis set group =>   1
Atom  21H    basis set group =>   1
Atom  22O    basis set group =>   2
Atom  23H    basis set group =>   1
---------------------------------
AUXILIARY/C BASIS SET INFORMATION
---------------------------------
There are 2 groups of distinct atoms

 Group   1 Type H   : 5s4p3d2f contracted to 5s4p3d2f pattern {11111/1111/111/11}
 Group   2 Type O   : 9s7p6d4f2g contracted to 9s7p6d4f2g pattern {111111111/1111111/111111/1111/11}

Atom   0H    basis set group =>   1
Atom   1O    basis set group =>   2
Atom   2H    basis set group =>   1
Atom   3H    basis set group =>   1
Atom   4O    basis set group =>   2
Atom   5H    basis set group =>   1
Atom   6H    basis set group =>   1
Atom   7O    basis set group =>   2
Atom   8H    basis set group =>   1
Atom   9H    basis set group =>   1
Atom  10O    basis set group =>   2
Atom  11H    basis set group =>   1
Atom  12H    basis set group =>   1
Atom  13O    basis set group =>   2
Atom  14H    basis set group =>   1
Atom  15H    basis set group =>   1
Atom  16O    basis set group =>   2
Atom  17H    basis set group =>   1
Atom  18H    basis set group =>   1
Atom  19O    basis set group =>   2
Atom  20H    basis set group =>   1
Atom  21H    basis set group =>   1
Atom  22O    basis set group =>   2
Atom  23H    basis set group =>   1


           ************************************************************
           *        Program running with 10 parallel MPI-processes    *
           *              working on a common directory               *
           ************************************************************
------------------------------------------------------------------------------
                           ORCA GTO INTEGRAL CALCULATION
------------------------------------------------------------------------------

                         BASIS SET STATISTICS AND STARTUP INFO

 # of primitive gaussian shells          ...  416
 # of primitive gaussian functions       ...  928
 # of contracted shells                  ...  256
 # of contracted basis functions         ...  736
 Highest angular momentum                ...    3
 Maximum contraction depth               ...    8
 Integral package used                   ... LIBINT
 Integral threshhold            Thresh   ...  1.000e-10
 Primitive cut-off              TCut     ...  1.000e-11


------------------------------ INTEGRAL EVALUATION ----------------------------


 * One electron integrals 
 Pre-screening matrix                    ... done
 Shell pair data                         ... done (   0.012 sec)



           ************************************************************
           *        Program running with 10 parallel MPI-processes    *
           *              working on a common directory               *
           ************************************************************
-------------------------------------------------------------------------------
                                 ORCA SCF
-------------------------------------------------------------------------------

------------
SCF SETTINGS
------------
Hamiltonian:
 Ab initio Hamiltonian  Method          .... Hartree-Fock(GTOs)


General Settings:
 Integral files         IntName         .... DLPNO_Cluster_TDP46
 Hartree-Fock type      HFTyp           .... RHF
 Total Charge           Charge          ....    0
 Multiplicity           Mult            ....    1
 Number of Electrons    NEL             ....   80
 Basis Dimension        Dim             ....  736
 Nuclear Repulsion      ENuc            ....    467.6690341287 Eh

Convergence Acceleration:
 DIIS                   CNVDIIS         .... on
   Start iteration      DIISMaxIt       ....    12
   Startup error        DIISStart       ....  0.200000
   # of expansion vecs  DIISMaxEq       ....     5
   Bias factor          DIISBfac        ....   1.050
   Max. coefficient     DIISMaxC        ....  10.000
 Newton-Raphson         CNVNR           .... off
 SOSCF                  CNVSOSCF        .... on
   Start iteration      SOSCFMaxIt      ....   150
   Startup grad/error   SOSCFStart      ....  0.003300
 Level Shifting         CNVShift        .... on
   Level shift para.    LevelShift      ....    0.2500
   Turn off err/grad.   ShiftErr        ....    0.0010
 Zerner damping         CNVZerner       .... off
 Static damping         CNVDamp         .... on
   Fraction old density DampFac         ....    0.7000
   Max. Damping (<1)    DampMax         ....    0.9800
   Min. Damping (>=0)   DampMin         ....    0.0000
   Turn off err/grad.   DampErr         ....    0.1000
 Fernandez-Rico         CNVRico         .... off

SCF Procedure:
 Maximum # iterations   MaxIter         ....   125
 SCF integral mode      SCFMode         .... Direct
   Integral package                     .... LIBINT
 Reset frequency        DirectResetFreq ....    20
 Integral Threshold     Thresh          ....  1.000e-10 Eh
 Primitive CutOff       TCut            ....  1.000e-11 Eh

Convergence Tolerance:
 Convergence Check Mode ConvCheckMode   .... Total+1el-Energy
 Convergence forced     ConvForced      .... 1
 Energy Change          TolE            ....  1.000e-06 Eh
 1-El. energy change                    ....  1.000e-03 Eh
 Orbital Gradient       TolG            ....  5.000e-05
 Orbital Rotation angle TolX            ....  5.000e-05
 DIIS Error             TolErr          ....  1.000e-06


Diagonalization of the overlap matrix:
Smallest eigenvalue                        ... 1.141e-05
Time for diagonalization                   ...    0.142 sec
Threshold for overlap eigenvalues          ... 1.000e-08
Number of eigenvalues below threshold      ... 0
Time for construction of square roots      ...    0.078 sec
Total time needed                          ...    0.222 sec

-------------------
DFT GRID GENERATION
-------------------

General Integration Accuracy     IntAcc      ...  4.340
Radial Grid Type                 RadialGrid  ... Gauss-Chebyshev
Angular Grid (max. acc.)         AngularGrid ... Lebedev-110
Angular grid pruning method      GridPruning ... 3 (G Style)
Weight generation scheme         WeightScheme... Becke
Basis function cutoff            BFCut       ...    1.0000e-10
Integration weight cutoff        WCut        ...    1.0000e-14
Grids for H and He will be reduced by one unit

# of grid points (after initial pruning)     ...  26432 (   0.0 sec)
# of grid points (after weights+screening)   ...  24482 (   0.0 sec)
nearest neighbour list constructed           ...    0.0 sec
Grid point re-assignment to atoms done       ...    0.0 sec
Grid point division into batches done        ...    0.0 sec
Reduced shell lists constructed in    0.1 sec

Total number of grid points                  ...    24482
Total number of batches                      ...      394
Average number of points per batch           ...       62
Average number of grid points per atom       ...     1020
Average number of shells per batch           ...   160.51 (62.70%)
Average number of basis functions per batch  ...   434.02 (58.97%)
Average number of large shells per batch     ...   122.37 (76.23%)
Average number of large basis fcns per batch ...   318.95 (73.49%)
Maximum spatial batch extension              ...  10.38, 16.63, 13.72 au
Average spatial batch extension              ...   0.28,  0.34,  0.31 au

Time for grid setup =    0.141 sec

------------------------------
INITIAL GUESS: MODEL POTENTIAL
------------------------------
Loading Hartree-Fock densities                     ... done
Calculating cut-offs                               ... done
Setting up the integral package                    ... done
Initializing the effective Hamiltonian             ... done
Starting the Coulomb interaction                   ... done (   0.2 sec)
Reading the grid                                   ... done
Mapping shells                                     ... done
Starting the XC term evaluation                    ... done (   0.1 sec)
Transforming the Hamiltonian                       ... done (   0.1 sec)
Diagonalizing the Hamiltonian                      ... done (   0.1 sec)
Back transforming the eigenvectors                 ... done (   0.0 sec)
Now organizing SCF variables                       ... done
                      ------------------
                      INITIAL GUESS DONE (   0.8 sec)
                      ------------------
--------------
SCF ITERATIONS
--------------
ITER       Energy         Delta-E        Max-DP      RMS-DP      [F,P]     Damp
               ***  Starting incremental Fock matrix formation  ***
  0   -607.7863478547   0.000000000000 0.03365094  0.00040135  0.3742023 0.7000
  1   -608.0597733832  -0.273425528447 0.02379648  0.00029151  0.2181006 0.7000
                               ***Turning on DIIS***
  2   -608.2046628163  -0.144889433159 0.01876742  0.00018322  0.1151492 0.7000
  3   -609.3209703523  -1.116307535975 0.04461338  0.00041369  0.0847030 0.0000
  4   -608.3044435420   1.016526810271 0.00474186  0.00006055  0.0153973 0.0000
  5   -608.4699569800  -0.165513437986 0.00461998  0.00003167  0.0038658 0.0000
                      *** Initiating the SOSCF procedure ***
                           *** Shutting down DIIS ***
                      *** Re-Reading the Fockian *** 
                      *** Removing any level shift *** 
ITER      Energy       Delta-E        Grad      Rot      Max-DP    RMS-DP
  6   -608.47354643  -0.0035894548  0.000426  0.000426  0.002080  0.000015
               *** Restarting incremental Fock matrix formation ***
  7   -608.48618057  -0.0126341307  0.000128  0.000163  0.000479  0.000005
  8   -608.48618708  -0.0000065171  0.000056  0.000139  0.000327  0.000004
  9   -608.48618863  -0.0000015444  0.000020  0.000016  0.000082  0.000001
                 **** Energy Check signals convergence ****
              ***Rediagonalizing the Fockian in SOSCF/NRSCF***

               *****************************************************
               *                     SUCCESS                       *
               *           SCF CONVERGED AFTER  10 CYCLES          *
               *****************************************************


----------------
TOTAL SCF ENERGY
----------------

Total Energy       :         -608.48618872 Eh          -16557.75097 eV

Components:
Nuclear Repulsion  :          467.66903413 Eh           12725.92139 eV
Electronic Energy  :        -1076.15522285 Eh          -29283.67237 eV
One Electron Energy:        -1771.65339914 Eh          -48209.13990 eV
Two Electron Energy:          695.49817629 Eh           18925.46753 eV

Virial components:
Potential Energy   :        -1215.91997411 Eh          -33086.86460 eV
Kinetic Energy     :          607.43378539 Eh           16529.11362 eV
Virial Ratio       :            2.00173254


---------------
SCF CONVERGENCE
---------------

  Last Energy change         ...   -9.4282e-08  Tolerance :   1.0000e-06
  Last MAX-Density change    ...    3.2447e-05  Tolerance :   1.0000e-05
  Last RMS-Density change    ...    2.1340e-07  Tolerance :   1.0000e-06
  Last Orbital Gradient      ...    8.5321e-06  Tolerance :   5.0000e-05
  Last Orbital Rotation      ...    6.3313e-06  Tolerance :   5.0000e-05

             **** THE GBW FILE WAS UPDATED (DLPNO_Cluster_TDP46.gbw) ****
             **** DENSITY FILE WAS UPDATED (DLPNO_Cluster_TDP46.scfp) ****
             **** ENERGY FILE WAS UPDATED (DLPNO_Cluster_TDP46.en.tmp) ****
             **** THE GBW FILE WAS UPDATED (DLPNO_Cluster_TDP46.gbw) ****
             **** DENSITY FILE WAS UPDATED (DLPNO_Cluster_TDP46.scfp) ****
----------------
ORBITAL ENERGIES
----------------

  NO   OCC          E(Eh)            E(eV) 
   0   2.0000     -20.652573      -561.9851 
   1   2.0000     -20.614686      -560.9541 
   2   2.0000     -20.593893      -560.3883 
   3   2.0000     -20.584778      -560.1403 
   4   2.0000     -20.574128      -559.8505 
   5   2.0000     -20.551494      -559.2346 
   6   2.0000     -20.540038      -558.9228 
   7   2.0000     -20.523620      -558.4761 
   8   2.0000      -1.434174       -39.0259 
   9   2.0000      -1.397755       -38.0349 
  10   2.0000      -1.374253       -37.3953 
  11   2.0000      -1.364991       -37.1433 
  12   2.0000      -1.359877       -37.0041 
  13   2.0000      -1.332960       -36.2717 
  14   2.0000      -1.322445       -35.9856 
  15   2.0000      -1.302784       -35.4506 
  16   2.0000      -0.785652       -21.3787 
  17   2.0000      -0.755126       -20.5480 
  18   2.0000      -0.748341       -20.3634 
  19   2.0000      -0.729670       -19.8553 
  20   2.0000      -0.724706       -19.7203 
  21   2.0000      -0.710564       -19.3354 
  22   2.0000      -0.698525       -19.0078 
  23   2.0000      -0.674718       -18.3600 
  24   2.0000      -0.664976       -18.0949 
  25   2.0000      -0.639749       -17.4085 
  26   2.0000      -0.636771       -17.3274 
  27   2.0000      -0.610635       -16.6162 
  28   2.0000      -0.605265       -16.4701 
  29   2.0000      -0.591171       -16.0866 
  30   2.0000      -0.562522       -15.3070 
  31   2.0000      -0.553027       -15.0486 
  32   2.0000      -0.552169       -15.0253 
  33   2.0000      -0.548069       -14.9137 
  34   2.0000      -0.532211       -14.4822 
  35   2.0000      -0.523946       -14.2573 
  36   2.0000      -0.504495       -13.7280 
  37   2.0000      -0.497816       -13.5463 
  38   2.0000      -0.487608       -13.2685 
  39   2.0000      -0.466044       -12.6817 
  40   0.0000      -0.000187        -0.0051 
  41   0.0000       0.026203         0.7130 
  42   0.0000       0.035790         0.9739 
  43   0.0000       0.038804         1.0559 
  44   0.0000       0.054365         1.4793 
  45   0.0000       0.056723         1.5435 
  46   0.0000       0.058299         1.5864 
  47   0.0000       0.062126         1.6905 
  48   0.0000       0.063746         1.7346 
  49   0.0000       0.076355         2.0777 
  50   0.0000       0.081034         2.2050 
  51   0.0000       0.083924         2.2837 
  52   0.0000       0.087842         2.3903 
  53   0.0000       0.089450         2.4340 
  54   0.0000       0.095607         2.6016 
  55   0.0000       0.104150         2.8341 
  56   0.0000       0.116734         3.1765 
  57   0.0000       0.124421         3.3857 
  58   0.0000       0.139257         3.7894 
  59   0.0000       0.148591         4.0434 
  60   0.0000       0.159278         4.3342 
  61   0.0000       0.165072         4.4918 
  62   0.0000       0.170311         4.6344 
  63   0.0000       0.175034         4.7629 
  64   0.0000       0.179515         4.8849 
  65   0.0000       0.184463         5.0195 
  66   0.0000       0.186637         5.0786 
  67   0.0000       0.189105         5.1458 
  68   0.0000       0.192776         5.2457 
  69   0.0000       0.194992         5.3060 
  70   0.0000       0.199265         5.4223 
  71   0.0000       0.203295         5.5319 
  72   0.0000       0.210873         5.7381 
  73   0.0000       0.211724         5.7613 
  74   0.0000       0.217021         5.9054 
  75   0.0000       0.225238         6.1290 
  76   0.0000       0.228122         6.2075 
  77   0.0000       0.232459         6.3255 
  78   0.0000       0.234400         6.3784 
  79   0.0000       0.236334         6.4310 
  80   0.0000       0.240263         6.5379 
  81   0.0000       0.242126         6.5886 
  82   0.0000       0.250859         6.8262 
  83   0.0000       0.256150         6.9702 
  84   0.0000       0.261943         7.1278 
  85   0.0000       0.266825         7.2607 
  86   0.0000       0.271325         7.3831 
  87   0.0000       0.279748         7.6123 
  88   0.0000       0.284508         7.7419 
  89   0.0000       0.300058         8.1650 
  90   0.0000       0.302830         8.2404 
  91   0.0000       0.313227         8.5233 
  92   0.0000       0.317441         8.6380 
  93   0.0000       0.324660         8.8344 
  94   0.0000       0.335996         9.1429 
  95   0.0000       0.337659         9.1882 
  96   0.0000       0.344687         9.3794 
  97   0.0000       0.347320         9.4511 
  98   0.0000       0.360267         9.8034 
  99   0.0000       0.363958         9.9038 
 100   0.0000       0.367822        10.0089 
 101   0.0000       0.370250        10.0750 
 102   0.0000       0.374031        10.1779 
 103   0.0000       0.379656        10.3310 
 104   0.0000       0.383242        10.4285 
 105   0.0000       0.389301        10.5934 
 106   0.0000       0.398330        10.8391 
 107   0.0000       0.399760        10.8780 
 108   0.0000       0.406324        11.0566 
 109   0.0000       0.412228        11.2173 
 110   0.0000       0.414829        11.2881 
 111   0.0000       0.419318        11.4102 
 112   0.0000       0.423495        11.5239 
 113   0.0000       0.426395        11.6028 
 114   0.0000       0.430079        11.7030 
 115   0.0000       0.434255        11.8167 
 116   0.0000       0.441797        12.0219 
 117   0.0000       0.442805        12.0493 
 118   0.0000       0.445007        12.1093 
 119   0.0000       0.452467        12.3122 
 120   0.0000       0.459693        12.5089 
 121   0.0000       0.464672        12.6444 
 122   0.0000       0.466874        12.7043 
 123   0.0000       0.470578        12.8051 
 124   0.0000       0.480597        13.0777 
 125   0.0000       0.483499        13.1567 
 126   0.0000       0.487913        13.2768 
 127   0.0000       0.490574        13.3492 
 128   0.0000       0.493740        13.4353 
 129   0.0000       0.502169        13.6647 
 130   0.0000       0.505081        13.7440 
 131   0.0000       0.510654        13.8956 
 132   0.0000       0.522799        14.2261 
 133   0.0000       0.524301        14.2670 
 134   0.0000       0.526015        14.3136 
 135   0.0000       0.529655        14.4126 
 136   0.0000       0.533950        14.5295 
 137   0.0000       0.537913        14.6374 
 138   0.0000       0.542770        14.7695 
 139   0.0000       0.553169        15.0525 
 140   0.0000       0.557491        15.1701 
 141   0.0000       0.567581        15.4447 
 142   0.0000       0.575718        15.6661 
 143   0.0000       0.587319        15.9818 
 144   0.0000       0.592740        16.1293 
 145   0.0000       0.602888        16.4054 
 146   0.0000       0.615368        16.7450 
 147   0.0000       0.620047        16.8723 
 148   0.0000       0.624456        16.9923 
 149   0.0000       0.634157        17.2563 
 150   0.0000       0.638677        17.3793 
 151   0.0000       0.644281        17.5318 
 152   0.0000       0.660968        17.9858 
 153   0.0000       0.666716        18.1423 
 154   0.0000       0.671802        18.2807 
 155   0.0000       0.676501        18.4085 
 156   0.0000       0.682966        18.5845 
 157   0.0000       0.693673        18.8758 
 158   0.0000       0.706103        19.2140 
 159   0.0000       0.714666        19.4470 
 160   0.0000       0.727318        19.7913 
 161   0.0000       0.731467        19.9042 
 162   0.0000       0.737641        20.0722 
 163   0.0000       0.741829        20.1862 
 164   0.0000       0.754623        20.5343 
 165   0.0000       0.756057        20.5733 
 166   0.0000       0.764064        20.7912 
 167   0.0000       0.766664        20.8620 
 168   0.0000       0.769925        20.9507 
 169   0.0000       0.779165        21.2022 
 170   0.0000       0.791442        21.5362 
 171   0.0000       0.794185        21.6109 
 172   0.0000       0.803693        21.8696 
 173   0.0000       0.808166        21.9913 
 174   0.0000       0.812979        22.1223 
 175   0.0000       0.826492        22.4900 
 176   0.0000       0.829057        22.5598 
 177   0.0000       0.835617        22.7383 
 178   0.0000       0.844211        22.9722 
 179   0.0000       0.849069        23.1043 
 180   0.0000       0.857492        23.3336 
 181   0.0000       0.863901        23.5079 
 182   0.0000       0.866703        23.5842 
 183   0.0000       0.878404        23.9026 
 184   0.0000       0.889559        24.2061 
 185   0.0000       0.892884        24.2966 
 186   0.0000       0.896348        24.3909 
 187   0.0000       0.898652        24.4536 
 188   0.0000       0.902043        24.5458 
 189   0.0000       0.909844        24.7581 
 190   0.0000       0.914283        24.8789 
 191   0.0000       0.921086        25.0640 
 192   0.0000       0.924136        25.1470 
 193   0.0000       0.933818        25.4105 
 194   0.0000       0.936836        25.4926 
 195   0.0000       0.946101        25.7447 
 196   0.0000       0.952153        25.9094 
 197   0.0000       0.960773        26.1440 
 198   0.0000       0.964642        26.2492 
 199   0.0000       0.966949        26.3120 
 200   0.0000       0.969734        26.3878 
 201   0.0000       0.972365        26.4594 
 202   0.0000       0.978009        26.6130 
 203   0.0000       0.983295        26.7568 
 204   0.0000       0.990818        26.9615 
 205   0.0000       0.992819        27.0160 
 206   0.0000       0.999741        27.2043 
 207   0.0000       1.004503        27.3339 
 208   0.0000       1.012855        27.5612 
 209   0.0000       1.018545        27.7160 
 210   0.0000       1.021985        27.8096 
 211   0.0000       1.028610        27.9899 
 212   0.0000       1.032281        28.0898 
 213   0.0000       1.036616        28.2078 
 214   0.0000       1.040804        28.3217 
 215   0.0000       1.051639        28.6166 
 216   0.0000       1.056183        28.7402 
 217   0.0000       1.062671        28.9168 
 218   0.0000       1.064688        28.9716 
 219   0.0000       1.070541        29.1309 
 220   0.0000       1.080848        29.4114 
 221   0.0000       1.088149        29.6100 
 222   0.0000       1.093804        29.7639 
 223   0.0000       1.098621        29.8950 
 224   0.0000       1.105443        30.0806 
 225   0.0000       1.110980        30.2313 
 226   0.0000       1.112336        30.2682 
 227   0.0000       1.121678        30.5224 
 228   0.0000       1.125029        30.6136 
 229   0.0000       1.135507        30.8987 
 230   0.0000       1.140548        31.0359 
 231   0.0000       1.143262        31.1097 
 232   0.0000       1.148943        31.2643 
 233   0.0000       1.157732        31.5035 
 234   0.0000       1.163322        31.6556 
 235   0.0000       1.166103        31.7313 
 236   0.0000       1.182558        32.1790 
 237   0.0000       1.185599        32.2618 
 238   0.0000       1.188798        32.3488 
 239   0.0000       1.193121        32.4665 
 240   0.0000       1.200728        32.6735 
 241   0.0000       1.214426        33.0462 
 242   0.0000       1.219210        33.1764 
 243   0.0000       1.231706        33.5164 
 244   0.0000       1.237833        33.6831 
 245   0.0000       1.242757        33.8171 
 246   0.0000       1.247255        33.9395 
 247   0.0000       1.249265        33.9942 
 248   0.0000       1.256018        34.1780 
 249   0.0000       1.268489        34.5173 
 250   0.0000       1.271006        34.5858 
 251   0.0000       1.277296        34.7570 
 252   0.0000       1.283843        34.9351 
 253   0.0000       1.287169        35.0256 
 254   0.0000       1.297080        35.2953 
 255   0.0000       1.301892        35.4263 
 256   0.0000       1.312376        35.7116 
 257   0.0000       1.314275        35.7632 
 258   0.0000       1.318376        35.8748 
 259   0.0000       1.320446        35.9312 
 260   0.0000       1.334953        36.3259 
 261   0.0000       1.338796        36.4305 
 262   0.0000       1.341869        36.5141 
 263   0.0000       1.346934        36.6519 
 264   0.0000       1.353774        36.8381 
 265   0.0000       1.360127        37.0109 
 266   0.0000       1.371076        37.3089 
 267   0.0000       1.375278        37.4232 
 268   0.0000       1.378490        37.5106 
 269   0.0000       1.383707        37.6526 
 270   0.0000       1.394789        37.9541 
 271   0.0000       1.407090        38.2889 
 272   0.0000       1.414665        38.4950 
 273   0.0000       1.421741        38.6875 
 274   0.0000       1.432627        38.9838 
 275   0.0000       1.445291        39.3284 
 276   0.0000       1.450779        39.4777 
 277   0.0000       1.456945        39.6455 
 278   0.0000       1.463693        39.8291 
 279   0.0000       1.474643        40.1271 
 280   0.0000       1.479949        40.2715 
 281   0.0000       1.484613        40.3984 
 282   0.0000       1.487228        40.4695 
 283   0.0000       1.501683        40.8629 
 284   0.0000       1.509227        41.0682 
 285   0.0000       1.525075        41.4994 
 286   0.0000       1.526765        41.5454 
 287   0.0000       1.537553        41.8389 
 288   0.0000       1.543412        41.9984 
 289   0.0000       1.545486        42.0548 
 290   0.0000       1.556883        42.3649 
 291   0.0000       1.565022        42.5864 
 292   0.0000       1.573547        42.8184 
 293   0.0000       1.579317        42.9754 
 294   0.0000       1.581609        43.0378 
 295   0.0000       1.592414        43.3318 
 296   0.0000       1.603527        43.6342 
 297   0.0000       1.621719        44.1292 
 298   0.0000       1.624275        44.1988 
 299   0.0000       1.629382        44.3377 
 300   0.0000       1.637317        44.5537 
 301   0.0000       1.645613        44.7794 
 302   0.0000       1.655068        45.0367 
 303   0.0000       1.665290        45.3148 
 304   0.0000       1.668020        45.3891 
 305   0.0000       1.689306        45.9683 
 306   0.0000       1.692512        46.0556 
 307   0.0000       1.707114        46.4529 
 308   0.0000       1.713942        46.6387 
 309   0.0000       1.726178        46.9717 
 310   0.0000       1.731284        47.1106 
 311   0.0000       1.737675        47.2845 
 312   0.0000       1.748875        47.5893 
 313   0.0000       1.752224        47.6804 
 314   0.0000       1.757864        47.8339 
 315   0.0000       1.768402        48.1207 
 316   0.0000       1.774240        48.2795 
 317   0.0000       1.789634        48.6984 
 318   0.0000       1.806490        49.1571 
 319   0.0000       1.811227        49.2860 
 320   0.0000       1.818084        49.4726 
 321   0.0000       1.825953        49.6867 
 322   0.0000       1.842395        50.1341 
 323   0.0000       1.851127        50.3717 
 324   0.0000       1.859701        50.6050 
 325   0.0000       1.873209        50.9726 
 326   0.0000       1.882232        51.2181 
 327   0.0000       1.886942        51.3463 
 328   0.0000       1.897643        51.6375 
 329   0.0000       1.908213        51.9251 
 330   0.0000       1.917548        52.1791 
 331   0.0000       1.928237        52.4700 
 332   0.0000       1.935568        52.6695 
 333   0.0000       1.951855        53.1127 
 334   0.0000       1.954989        53.1980 
 335   0.0000       1.970419        53.6178 
 336   0.0000       1.978854        53.8474 
 337   0.0000       1.992568        54.2205 
 338   0.0000       1.996482        54.3270 
 339   0.0000       2.003774        54.5255 
 340   0.0000       2.020753        54.9875 
 341   0.0000       2.023147        55.0526 
 342   0.0000       2.041079        55.5406 
 343   0.0000       2.048276        55.7364 
 344   0.0000       2.056636        55.9639 
 345   0.0000       2.076207        56.4965 
 346   0.0000       2.095780        57.0291 
 347   0.0000       2.102279        57.2059 
 348   0.0000       2.112319        57.4791 
 349   0.0000       2.124656        57.8148 
 350   0.0000       2.140710        58.2517 
 351   0.0000       2.156873        58.6915 
 352   0.0000       2.182593        59.3914 
 353   0.0000       2.192602        59.6637 
 354   0.0000       2.204255        59.9808 
 355   0.0000       2.205489        60.0144 
 356   0.0000       2.234992        60.8172 
 357   0.0000       2.239844        60.9492 
 358   0.0000       2.265923        61.6589 
 359   0.0000       2.295664        62.4682 
 360   0.0000       2.322823        63.2072 
 361   0.0000       2.351010        63.9742 
 362   0.0000       2.369246        64.4705 
 363   0.0000       2.378270        64.7160 
 364   0.0000       2.401696        65.3535 
 365   0.0000       2.408689        65.5438 
 366   0.0000       2.416774        65.7638 
 367   0.0000       2.417687        65.7886 
 368   0.0000       2.426270        66.0222 
 369   0.0000       2.440871        66.4195 
 370   0.0000       2.445662        66.5499 
 371   0.0000       2.461955        66.9932 
 372   0.0000       2.475512        67.3621 
 373   0.0000       2.481134        67.5151 
 374   0.0000       2.492220        67.8167 
 375   0.0000       2.504924        68.1625 
 376   0.0000       2.508462        68.2587 
 377   0.0000       2.515602        68.4530 
 378   0.0000       2.520087        68.5751 
 379   0.0000       2.536173        69.0128 
 380   0.0000       2.540811        69.1390 
 381   0.0000       2.542530        69.1857 
 382   0.0000       2.560421        69.6726 
 383   0.0000       2.566284        69.8321 
 384   0.0000       2.578116        70.1541 
 385   0.0000       2.583252        70.2939 
 386   0.0000       2.587055        70.3973 
 387   0.0000       2.595838        70.6363 
 388   0.0000       2.610063        71.0234 
 389   0.0000       2.612911        71.1009 
 390   0.0000       2.619305        71.2749 
 391   0.0000       2.626232        71.4634 
 392   0.0000       2.636002        71.7293 
 393   0.0000       2.641561        71.8805 
 394   0.0000       2.652885        72.1887 
 395   0.0000       2.664680        72.5096 
 396   0.0000       2.679355        72.9089 
 397   0.0000       2.684414        73.0466 
 398   0.0000       2.690097        73.2013 
 399   0.0000       2.697846        73.4121 
 400   0.0000       2.700785        73.4921 
 401   0.0000       2.711792        73.7916 
 402   0.0000       2.724884        74.1479 
 403   0.0000       2.728286        74.2404 
 404   0.0000       2.734954        74.4219 
 405   0.0000       2.746514        74.7365 
 406   0.0000       2.748340        74.7861 
 407   0.0000       2.761590        75.1467 
 408   0.0000       2.766657        75.2846 
 409   0.0000       2.773581        75.4730 
 410   0.0000       2.776908        75.5635 
 411   0.0000       2.792920        75.9992 
 412   0.0000       2.795684        76.0744 
 413   0.0000       2.808000        76.4096 
 414   0.0000       2.815665        76.6182 
 415   0.0000       2.828250        76.9606 
 416   0.0000       2.832001        77.0627 
 417   0.0000       2.841815        77.3297 
 418   0.0000       2.856193        77.7210 
 419   0.0000       2.865712        77.9800 
 420   0.0000       2.872291        78.1590 
 421   0.0000       2.875804        78.2546 
 422   0.0000       2.880878        78.3927 
 423   0.0000       2.884758        78.4982 
 424   0.0000       2.896413        78.8154 
 425   0.0000       2.897556        78.8465 
 426   0.0000       2.908090        79.1332 
 427   0.0000       2.923292        79.5468 
 428   0.0000       2.933478        79.8240 
 429   0.0000       2.942814        80.0780 
 430   0.0000       2.958259        80.4983 
 431   0.0000       2.962870        80.6238 
 432   0.0000       2.965070        80.6836 
 433   0.0000       2.984483        81.2119 
 434   0.0000       2.995558        81.5133 
 435   0.0000       3.013883        82.0119 
 436   0.0000       3.016630        82.0867 
 437   0.0000       3.020540        82.1931 
 438   0.0000       3.042163        82.7815 
 439   0.0000       3.057599        83.2015 
 440   0.0000       3.065068        83.4047 
 441   0.0000       3.069614        83.5284 
 442   0.0000       3.072718        83.6129 
 443   0.0000       3.092311        84.1461 
 444   0.0000       3.104030        84.4649 
 445   0.0000       3.107737        84.5658 
 446   0.0000       3.117404        84.8289 
 447   0.0000       3.127274        85.0974 
 448   0.0000       3.145115        85.5829 
 449   0.0000       3.155531        85.8664 
 450   0.0000       3.166565        86.1666 
 451   0.0000       3.168845        86.2287 
 452   0.0000       3.178238        86.4843 
 453   0.0000       3.195729        86.9602 
 454   0.0000       3.220463        87.6332 
 455   0.0000       3.230116        87.8959 
 456   0.0000       3.261909        88.7611 
 457   0.0000       3.299806        89.7923 
 458   0.0000       3.313856        90.1746 
 459   0.0000       3.336872        90.8009 
 460   0.0000       3.371674        91.7479 
 461   0.0000       3.414585        92.9156 
 462   0.0000       3.423646        93.1622 
 463   0.0000       3.536831        96.2421 
 464   0.0000       3.858499       104.9951 
 465   0.0000       3.862652       105.1081 
 466   0.0000       3.875903       105.4687 
 467   0.0000       3.899625       106.1142 
 468   0.0000       3.916477       106.5727 
 469   0.0000       3.958709       107.7219 
 470   0.0000       3.961158       107.7886 
 471   0.0000       3.972558       108.0988 
 472   0.0000       4.025675       109.5442 
 473   0.0000       4.069229       110.7293 
 474   0.0000       4.086778       111.2069 
 475   0.0000       4.090632       111.3117 
 476   0.0000       4.111057       111.8675 
 477   0.0000       4.118162       112.0609 
 478   0.0000       4.142979       112.7362 
 479   0.0000       4.149813       112.9221 
 480   0.0000       4.152397       112.9925 
 481   0.0000       4.176070       113.6366 
 482   0.0000       4.196227       114.1851 
 483   0.0000       4.199135       114.2643 
 484   0.0000       4.213238       114.6480 
 485   0.0000       4.227227       115.0287 
 486   0.0000       4.237476       115.3076 
 487   0.0000       4.252812       115.7249 
 488   0.0000       4.269098       116.1680 
 489   0.0000       4.276643       116.3734 
 490   0.0000       4.279847       116.4606 
 491   0.0000       4.282696       116.5381 
 492   0.0000       4.287940       116.6808 
 493   0.0000       4.295715       116.8923 
 494   0.0000       4.307526       117.2137 
 495   0.0000       4.315949       117.4429 
 496   0.0000       4.320022       117.5538 
 497   0.0000       4.334229       117.9404 
 498   0.0000       4.338073       118.0450 
 499   0.0000       4.341741       118.1448 
 500   0.0000       4.348689       118.3338 
 501   0.0000       4.354468       118.4911 
 502   0.0000       4.363446       118.7354 
 503   0.0000       4.366329       118.8139 
 504   0.0000       4.387570       119.3919 
 505   0.0000       4.410208       120.0079 
 506   0.0000       4.415487       120.1515 
 507   0.0000       4.416372       120.1756 
 508   0.0000       4.428605       120.5085 
 509   0.0000       4.437683       120.7555 
 510   0.0000       4.452457       121.1575 
 511   0.0000       4.462589       121.4332 
 512   0.0000       4.467373       121.5634 
 513   0.0000       4.478980       121.8792 
 514   0.0000       4.484303       122.0241 
 515   0.0000       4.494151       122.2921 
 516   0.0000       4.505042       122.5884 
 517   0.0000       4.514850       122.8553 
 518   0.0000       4.520220       123.0014 
 519   0.0000       4.527444       123.1980 
 520   0.0000       4.534672       123.3947 
 521   0.0000       4.543291       123.6292 
 522   0.0000       4.556136       123.9788 
 523   0.0000       4.567851       124.2975 
 524   0.0000       4.572889       124.4346 
 525   0.0000       4.583526       124.7241 
 526   0.0000       4.592309       124.9631 
 527   0.0000       4.601047       125.2009 
 528   0.0000       4.607550       125.3778 
 529   0.0000       4.615176       125.5853 
 530   0.0000       4.634784       126.1189 
 531   0.0000       4.642032       126.3161 
 532   0.0000       4.652121       126.5906 
 533   0.0000       4.658627       126.7677 
 534   0.0000       4.664402       126.9248 
 535   0.0000       4.679593       127.3382 
 536   0.0000       4.694464       127.7429 
 537   0.0000       4.695881       127.7814 
 538   0.0000       4.706134       128.0604 
 539   0.0000       4.719080       128.4127 
 540   0.0000       4.737985       128.9271 
 541   0.0000       4.738805       128.9494 
 542   0.0000       4.754361       129.3728 
 543   0.0000       4.758968       129.4981 
 544   0.0000       4.772809       129.8747 
 545   0.0000       4.779027       130.0439 
 546   0.0000       4.801603       130.6583 
 547   0.0000       4.817078       131.0794 
 548   0.0000       4.824204       131.2733 
 549   0.0000       4.841276       131.7378 
 550   0.0000       4.866279       132.4182 
 551   0.0000       4.870596       132.5357 
 552   0.0000       4.887718       133.0016 
 553   0.0000       4.902579       133.4060 
 554   0.0000       4.912822       133.6847 
 555   0.0000       4.939903       134.4216 
 556   0.0000       4.953417       134.7893 
 557   0.0000       4.966327       135.1406 
 558   0.0000       4.983847       135.6174 
 559   0.0000       4.991123       135.8154 
 560   0.0000       5.012504       136.3972 
 561   0.0000       5.037557       137.0789 
 562   0.0000       5.051470       137.4575 
 563   0.0000       5.065865       137.8492 
 564   0.0000       5.101518       138.8194 
 565   0.0000       5.124516       139.4452 
 566   0.0000       5.128983       139.5667 
 567   0.0000       5.145404       140.0136 
 568   0.0000       5.167346       140.6106 
 569   0.0000       5.174023       140.7923 
 570   0.0000       5.177864       140.8969 
 571   0.0000       5.184319       141.0725 
 572   0.0000       5.201034       141.5273 
 573   0.0000       5.216722       141.9542 
 574   0.0000       5.238792       142.5548 
 575   0.0000       5.247585       142.7940 
 576   0.0000       5.254673       142.9869 
 577   0.0000       5.274448       143.5250 
 578   0.0000       5.289822       143.9434 
 579   0.0000       5.303569       144.3175 
 580   0.0000       5.325887       144.9248 
 581   0.0000       5.327057       144.9566 
 582   0.0000       5.351574       145.6237 
 583   0.0000       5.371262       146.1595 
 584   0.0000       5.374833       146.2567 
 585   0.0000       5.382771       146.4726 
 586   0.0000       5.389213       146.6479 
 587   0.0000       5.407549       147.1469 
 588   0.0000       5.417324       147.4129 
 589   0.0000       5.441200       148.0626 
 590   0.0000       5.446569       148.2087 
 591   0.0000       5.449412       148.2860 
 592   0.0000       5.470021       148.8469 
 593   0.0000       5.493843       149.4951 
 594   0.0000       5.519040       150.1807 
 595   0.0000       5.519757       150.2002 
 596   0.0000       5.539316       150.7325 
 597   0.0000       5.551438       151.0623 
 598   0.0000       5.582098       151.8966 
 599   0.0000       5.588746       152.0775 
 600   0.0000       5.604854       152.5158 
 601   0.0000       5.652904       153.8233 
 602   0.0000       5.668448       154.2463 
 603   0.0000       5.681713       154.6073 
 604   0.0000       5.705653       155.2587 
 605   0.0000       5.710890       155.4012 
 606   0.0000       5.728465       155.8795 
 607   0.0000       5.773016       157.0918 
 608   0.0000       5.808484       158.0569 
 609   0.0000       5.852127       159.2445 
 610   0.0000       5.870935       159.7563 
 611   0.0000       5.874251       159.8465 
 612   0.0000       5.914376       160.9384 
 613   0.0000       5.935054       161.5010 
 614   0.0000       6.007992       163.4858 
 615   0.0000       6.053223       164.7166 
 616   0.0000       6.310308       171.7122 
 617   0.0000       6.338808       172.4877 
 618   0.0000       6.356750       172.9760 
 619   0.0000       6.382280       173.6707 
 620   0.0000       6.409422       174.4092 
 621   0.0000       6.459375       175.7685 
 622   0.0000       6.496884       176.7892 
 623   0.0000       6.538051       177.9094 
 624   0.0000       6.549695       178.2263 
 625   0.0000       6.569961       178.7777 
 626   0.0000       6.609125       179.8434 
 627   0.0000       6.614248       179.9829 
 628   0.0000       6.655534       181.1063 
 629   0.0000       6.671858       181.5505 
 630   0.0000       6.706752       182.5000 
 631   0.0000       6.763301       184.0388 
 632   0.0000       6.822005       185.6362 
 633   0.0000       6.830860       185.8771 
 634   0.0000       6.848864       186.3671 
 635   0.0000       6.867144       186.8645 
 636   0.0000       6.871874       186.9932 
 637   0.0000       6.905964       187.9208 
 638   0.0000       6.916899       188.2184 
 639   0.0000       6.948560       189.0799 
 640   0.0000       6.987537       190.1406 
 641   0.0000       6.998604       190.4417 
 642   0.0000       7.011854       190.8022 
 643   0.0000       7.023506       191.1193 
 644   0.0000       7.037580       191.5023 
 645   0.0000       7.069912       192.3821 
 646   0.0000       7.092345       192.9925 
 647   0.0000       7.136794       194.2020 
 648   0.0000       7.173197       195.1926 
 649   0.0000       7.181633       195.4222 
 650   0.0000       7.203193       196.0088 
 651   0.0000       7.212581       196.2643 
 652   0.0000       7.223436       196.5597 
 653   0.0000       7.249929       197.2806 
 654   0.0000       7.265032       197.6916 
 655   0.0000       7.269516       197.8136 
 656   0.0000       7.279325       198.0805 
 657   0.0000       7.294571       198.4954 
 658   0.0000       7.309811       198.9101 
 659   0.0000       7.314082       199.0263 
 660   0.0000       7.326218       199.3565 
 661   0.0000       7.338806       199.6991 
 662   0.0000       7.342246       199.7927 
 663   0.0000       7.346496       199.9083 
 664   0.0000       7.360106       200.2787 
 665   0.0000       7.366166       200.4436 
 666   0.0000       7.381252       200.8541 
 667   0.0000       7.394574       201.2166 
 668   0.0000       7.403391       201.4565 
 669   0.0000       7.414157       201.7495 
 670   0.0000       7.416440       201.8116 
 671   0.0000       7.425320       202.0532 
 672   0.0000       7.427348       202.1084 
 673   0.0000       7.435704       202.3358 
 674   0.0000       7.446799       202.6377 
 675   0.0000       7.456093       202.8906 
 676   0.0000       7.470732       203.2890 
 677   0.0000       7.476430       203.4440 
 678   0.0000       7.481149       203.5724 
 679   0.0000       7.499714       204.0776 
 680   0.0000       7.508291       204.3110 
 681   0.0000       7.512727       204.4317 
 682   0.0000       7.525595       204.7818 
 683   0.0000       7.529345       204.8839 
 684   0.0000       7.557998       205.6636 
 685   0.0000       7.576276       206.1609 
 686   0.0000       7.585875       206.4222 
 687   0.0000       7.594638       206.6606 
 688   0.0000       7.616226       207.2480 
 689   0.0000       7.626683       207.5326 
 690   0.0000       7.643681       207.9951 
 691   0.0000       7.655720       208.3227 
 692   0.0000       7.670216       208.7172 
 693   0.0000       7.683917       209.0900 
 694   0.0000       7.699225       209.5066 
 695   0.0000       7.728647       210.3072 
 696   0.0000       7.744120       210.7282 
 697   0.0000       7.768350       211.3875 
 698   0.0000       7.834998       213.2011 
 699   0.0000       7.847150       213.5318 
 700   0.0000       7.870797       214.1753 
 701   0.0000       7.900816       214.9921 
 702   0.0000       7.931576       215.8292 
 703   0.0000       7.962220       216.6630 
 704   0.0000       7.991281       217.4538 
 705   0.0000       7.997364       217.6193 
 706   0.0000       8.011698       218.0094 
 707   0.0000       8.024845       218.3671 
 708   0.0000       8.040373       218.7897 
 709   0.0000       8.044681       218.9069 
 710   0.0000       8.051975       219.1054 
 711   0.0000       8.072859       219.6737 
 712   0.0000       8.088037       220.0867 
 713   0.0000       8.098092       220.3603 
 714   0.0000       8.144117       221.6127 
 715   0.0000       8.149467       221.7583 
 716   0.0000       8.179972       222.5883 
 717   0.0000       8.190037       222.8622 
 718   0.0000       8.245716       224.3773 
 719   0.0000       8.321045       226.4271 
 720   0.0000       8.856480       240.9971 
 721   0.0000       8.871583       241.4080 
 722   0.0000       8.885010       241.7734 
 723   0.0000       8.901083       242.2108 
 724   0.0000       8.952720       243.6159 
 725   0.0000       8.966877       244.0011 
 726   0.0000       8.980600       244.3746 
 727   0.0000       9.136505       248.6169 
 728   0.0000      15.900722       432.6806 
 729   0.0000      16.161915       439.7881 
 730   0.0000      16.351571       444.9489 
 731   0.0000      16.882798       459.4043 
 732   0.0000      17.038224       463.6337 
 733   0.0000      17.183921       467.5983 
 734   0.0000      17.583678       478.4762 
 735   0.0000      18.788326       511.2563 

                    ********************************
                    * MULLIKEN POPULATION ANALYSIS *
                    ********************************

-----------------------
MULLIKEN ATOMIC CHARGES
-----------------------
   0 H :    0.477822
   1 O :   -0.602823
   2 H :    0.156854
   3 H :    0.119210
   4 O :   -0.306705
   5 H :    0.160305
   6 H :    0.259986
   7 O :   -0.599494
   8 H :    0.350937
   9 H :    0.343740
  10 O :   -0.543172
  11 H :    0.183342
  12 H :    0.244730
  13 O :   -0.637316
  14 H :    0.384670
  15 H :    0.470464
  16 O :   -0.578542
  17 H :    0.157428
  18 H :    0.394184
  19 O :   -0.611216
  20 H :    0.215601
  21 H :    0.304043
  22 O :   -0.552590
  23 H :    0.208541
Sum of atomic charges:    0.0000000

--------------------------------
MULLIKEN REDUCED ORBITAL CHARGES
--------------------------------
  0 H s       :     0.492225  s :     0.492225
      pz      :    -0.086659  p :    -0.012306
      px      :     0.040413
      py      :     0.033940
      dz2     :     0.009268  d :     0.042259
      dxz     :     0.012052
      dyz     :     0.019139
      dx2y2   :     0.000708
      dxy     :     0.001093
  1 O s       :     3.929775  s :     3.929775
      pz      :     1.397249  p :     4.642388
      px      :     1.396848
      py      :     1.848290
      dz2     :     0.014251  d :     0.029505
      dxz     :     0.006111
      dyz     :     0.001976
      dx2y2   :     0.005059
      dxy     :     0.002109
      f0      :     0.000281  f :     0.001155
      f+1     :     0.000019
      f-1     :     0.000165
      f+2     :     0.000164
      f-2     :     0.000012
      f+3     :     0.000416
      f-3     :     0.000096
  2 H s       :     0.736141  s :     0.736141
      pz      :     0.028652  p :     0.092153
      px      :     0.021350
      py      :     0.042151
      dz2     :     0.003407  d :     0.014852
      dxz     :     0.001432
      dyz     :     0.000587
      dx2y2   :     0.001377
      dxy     :     0.008048
  3 H s       :     0.711016  s :     0.711016
      pz      :     0.062736  p :     0.146959
      px      :     0.047638
      py      :     0.036585
      dz2     :     0.002207  d :     0.022815
      dxz     :     0.008058
      dyz     :     0.003896
      dx2y2   :     0.006502
      dxy     :     0.002152
  4 O s       :     3.883342  s :     3.883342
      pz      :     1.770246  p :     4.436008
      px      :     1.201247
      py      :     1.464514
      dz2     :    -0.018160  d :    -0.011648
      dxz     :     0.000314
      dyz     :     0.001726
      dx2y2   :     0.000007
      dxy     :     0.004464
      f0      :    -0.000436  f :    -0.000996
      f+1     :    -0.000028
      f-1     :    -0.000293
      f+2     :     0.000025
      f-2     :     0.000016
      f+3     :     0.000012
      f-3     :    -0.000292
  5 H s       :     0.667775  s :     0.667775
      pz      :     0.066977  p :     0.147609
      px      :     0.051030
      py      :     0.029602
      dz2     :     0.002338  d :     0.024311
      dxz     :     0.007375
      dyz     :     0.005624
      dx2y2   :     0.007208
      dxy     :     0.001765
  6 H s       :     0.620135  s :     0.620135
      pz      :     0.037735  p :     0.086831
      px      :     0.009028
      py      :     0.040068
      dz2     :     0.008609  d :     0.033048
      dxz     :     0.001467
      dyz     :     0.007363
      dx2y2   :     0.003782
      dxy     :     0.011827
  7 O s       :     3.947266  s :     3.947266
      pz      :     1.321260  p :     4.633383
      px      :     1.522080
      py      :     1.790044
      dz2     :     0.000259  d :     0.017719
      dxz     :     0.009745
      dyz     :     0.001389
      dx2y2   :     0.003878
      dxy     :     0.002448
      f0      :     0.000062  f :     0.001126
      f+1     :     0.000052
      f-1     :     0.000286
      f+2     :     0.000278
      f-2     :     0.000211
      f+3     :     0.000162
      f-3     :     0.000074
  8 H s       :     0.561348  s :     0.561348
      pz      :     0.004276  p :     0.063067
      px      :     0.023080
      py      :     0.035710
      dz2     :     0.010308  d :     0.024649
      dxz     :     0.006009
      dyz     :     0.004721
      dx2y2   :     0.002204
      dxy     :     0.001407
  9 H s       :     0.539044  s :     0.539044
      pz      :     0.029181  p :     0.079722
      px      :     0.021897
      py      :     0.028644
      dz2     :     0.003543  d :     0.037495
      dxz     :     0.007066
      dyz     :     0.001906
      dx2y2   :     0.005814
      dxy     :     0.019165
 10 O s       :     3.883817  s :     3.883817
      pz      :     1.438482  p :     4.646183
      px      :     1.357613
      py      :     1.850088
      dz2     :     0.002522  d :     0.012648
      dxz     :     0.005700
      dyz     :     0.002092
      dx2y2   :     0.002738
      dxy     :    -0.000403
      f0      :     0.000156  f :     0.000523
      f+1     :     0.000110
      f-1     :    -0.000016
      f+2     :     0.000091
      f-2     :     0.000019
      f+3     :     0.000059
      f-3     :     0.000104
 11 H s       :     0.693158  s :     0.693158
      pz      :     0.025352  p :     0.107604
      px      :     0.035743
      py      :     0.046508
      dz2     :     0.004441  d :     0.015897
      dxz     :     0.001058
      dyz     :     0.005518
      dx2y2   :     0.001660
      dxy     :     0.003219
 12 H s       :     0.642945  s :     0.642945
      pz      :     0.024438  p :     0.094269
      px      :     0.032920
      py      :     0.036910
      dz2     :     0.000771  d :     0.018057
      dxz     :     0.004843
      dyz     :     0.000964
      dx2y2   :     0.005729
      dxy     :     0.005750
 13 O s       :     3.927406  s :     3.927406
      pz      :     1.505900  p :     4.683566
      px      :     1.445518
      py      :     1.732147
      dz2     :     0.016843  d :     0.025590
      dxz     :     0.000681
      dyz     :     0.005041
      dx2y2   :     0.003497
      dxy     :    -0.000473
      f0      :     0.000168  f :     0.000755
      f+1     :     0.000011
      f-1     :     0.000244
      f+2     :    -0.000021
      f-2     :     0.000008
      f+3     :     0.000166
      f-3     :     0.000178
 14 H s       :     0.533404  s :     0.533404
      pz      :    -0.062208  p :     0.025784
      px      :     0.028123
      py      :     0.059869
      dz2     :     0.012485  d :     0.056142
      dxz     :     0.016183
      dyz     :     0.021562
      dx2y2   :     0.002965
      dxy     :     0.002947
 15 H s       :     0.491667  s :     0.491667
      pz      :    -0.029862  p :     0.009182
      px      :     0.013062
      py      :     0.025982
      dz2     :     0.009116  d :     0.028686
      dxz     :     0.004719
      dyz     :     0.003916
      dx2y2   :     0.008263
      dxy     :     0.002672
 16 O s       :     3.912849  s :     3.912849
      pz      :     1.508370  p :     4.640686
      px      :     1.651820
      py      :     1.480496
      dz2     :     0.004705  d :     0.023794
      dxz     :     0.009656
      dyz     :     0.009142
      dx2y2   :    -0.000253
      dxy     :     0.000545
      f0      :    -0.000074  f :     0.001212
      f+1     :     0.000178
      f-1     :     0.000144
      f+2     :     0.000055
      f-2     :     0.000373
      f+3     :     0.000306
      f-3     :     0.000231
 17 H s       :     0.715885  s :     0.715885
      pz      :     0.027703  p :     0.112507
      px      :     0.050926
      py      :     0.033877
      dz2     :     0.002103  d :     0.014180
      dxz     :     0.002467
      dyz     :     0.002021
      dx2y2   :     0.005899
      dxy     :     0.001690
 18 H s       :     0.542335  s :     0.542335
      pz      :     0.021611  p :     0.023821
      px      :     0.022412
      py      :    -0.020202
      dz2     :     0.002394  d :     0.039660
      dxz     :     0.007502
      dyz     :     0.010276
      dx2y2   :     0.012064
      dxy     :     0.007423
 19 O s       :     3.916953  s :     3.916953
      pz      :     1.589317  p :     4.667496
      px      :     1.523402
      py      :     1.554776
      dz2     :     0.005540  d :     0.025564
      dxz     :     0.002686
      dyz     :     0.003722
      dx2y2   :     0.002293
      dxy     :     0.011323
      f0      :     0.000095  f :     0.001203
      f+1     :     0.000304
      f-1     :     0.000277
      f+2     :     0.000076
      f-2     :     0.000214
      f+3     :     0.000224
      f-3     :     0.000013
 20 H s       :     0.667516  s :     0.667516
      pz      :     0.027668  p :     0.100865
      px      :     0.042370
      py      :     0.030827
      dz2     :     0.007466  d :     0.016018
      dxz     :     0.000203
      dyz     :     0.003615
      dx2y2   :     0.001448
      dxy     :     0.003287
 21 H s       :     0.601706  s :     0.601706
      pz      :     0.036989  p :     0.077393
      px      :     0.010045
      py      :     0.030359
      dz2     :     0.000257  d :     0.016858
      dxz     :     0.008201
      dyz     :    -0.000388
      dx2y2   :     0.000046
      dxy     :     0.008742
 22 O s       :     3.905581  s :     3.905581
      pz      :     1.608336  p :     4.626565
      px      :     1.334183
      py      :     1.684046
      dz2     :     0.003525  d :     0.019538
      dxz     :     0.000462
      dyz     :     0.006571
      dx2y2   :     0.006371
      dxy     :     0.002610
      f0      :     0.000032  f :     0.000905
      f+1     :     0.000017
      f-1     :     0.000365
      f+2     :     0.000123
      f-2     :     0.000088
      f+3     :     0.000238
      f-3     :     0.000041
 23 H s       :     0.667234  s :     0.667234
      pz      :     0.047494  p :     0.108291
      px      :     0.030989
      py      :     0.029809
      dz2     :     0.006544  d :     0.015933
      dxz     :     0.002860
      dyz     :     0.000671
      dx2y2   :     0.004008
      dxy     :     0.001850


                     *******************************
                     * LOEWDIN POPULATION ANALYSIS *
                     *******************************

----------------------
LOEWDIN ATOMIC CHARGES
----------------------
   0 H :   -0.693633
   1 O :    1.085200
   2 H :   -0.472436
   3 H :   -0.367605
   4 O :    1.140976
   5 H :   -0.308171
   6 H :   -0.631184
   7 O :    1.052018
   8 H :   -0.580008
   9 H :   -0.619754
  10 O :    1.099723
  11 H :   -0.396266
  12 H :   -0.536304
  13 O :    1.090326
  14 H :   -0.730127
  15 H :   -0.634559
  16 O :    1.053363
  17 H :   -0.465652
  18 H :   -0.730704
  19 O :    1.024482
  20 H :   -0.506839
  21 H :   -0.488294
  22 O :    1.084894
  23 H :   -0.469447

-------------------------------
LOEWDIN REDUCED ORBITAL CHARGES
-------------------------------
  0 H s       :     0.527304  s :     0.527304
      pz      :     0.325213  p :     0.626503
      px      :     0.142323
      py      :     0.158967
      dz2     :     0.197914  d :     0.539826
      dxz     :     0.160391
      dyz     :     0.151878
      dx2y2   :     0.011484
      dxy     :     0.018159
  1 O s       :     2.977073  s :     2.977073
      pz      :     1.204335  p :     3.829326
      px      :     1.237160
      py      :     1.387832
      dz2     :     0.030057  d :     0.092391
      dxz     :     0.029597
      dyz     :     0.006633
      dx2y2   :     0.019082
      dxy     :     0.007021
      f0      :     0.004285  f :     0.016009
      f+1     :     0.002770
      f-1     :     0.001447
      f+2     :     0.003126
      f-2     :     0.000752
      f+3     :     0.002580
      f-3     :     0.001050
  2 H s       :     0.575240  s :     0.575240
      pz      :     0.140630  p :     0.529087
      px      :     0.230509
      py      :     0.157949
      dz2     :     0.068862  d :     0.368109
      dxz     :     0.091552
      dyz     :     0.023829
      dx2y2   :     0.081881
      dxy     :     0.101984
  3 H s       :     0.536592  s :     0.536592
      pz      :     0.132917  p :     0.482718
      px      :     0.186433
      py      :     0.163368
      dz2     :     0.034998  d :     0.348296
      dxz     :     0.074028
      dyz     :     0.036299
      dx2y2   :     0.106513
      dxy     :     0.096458
  4 O s       :     2.910843  s :     2.910843
      pz      :     1.365032  p :     3.779711
      px      :     1.138155
      py      :     1.276524
      dz2     :     0.054900  d :     0.142029
      dxz     :     0.008027
      dyz     :     0.017423
      dx2y2   :     0.007833
      dxy     :     0.053846
      f0      :     0.005070  f :     0.026442
      f+1     :     0.005289
      f-1     :     0.005452
      f+2     :     0.000451
      f-2     :     0.000659
      f+3     :     0.002888
      f-3     :     0.006633
  5 H s       :     0.519451  s :     0.519451
      pz      :     0.122841  p :     0.452899
      px      :     0.164032
      py      :     0.166027
      dz2     :     0.034453  d :     0.335821
      dxz     :     0.059110
      dyz     :     0.047574
      dx2y2   :     0.111152
      dxy     :     0.083532
  6 H s       :     0.567053  s :     0.567053
      pz      :     0.182942  p :     0.595707
      px      :     0.249570
      py      :     0.163195
      dz2     :     0.109824  d :     0.468424
      dxz     :     0.113679
      dyz     :     0.065399
      dx2y2   :     0.085192
      dxy     :     0.094330
  7 O s       :     2.989261  s :     2.989261
      pz      :     1.181728  p :     3.872578
      px      :     1.309840
      py      :     1.381010
      dz2     :     0.013059  d :     0.072244
      dxz     :     0.037677
      dyz     :     0.011758
      dx2y2   :     0.006357
      dxy     :     0.003394
      f0      :     0.000873  f :     0.013899
      f+1     :     0.003629
      f-1     :     0.002320
      f+2     :     0.003826
      f-2     :     0.002040
      f+3     :     0.001032
      f-3     :     0.000179
  8 H s       :     0.573490  s :     0.573490
      pz      :     0.233716  p :     0.577708
      px      :     0.165221
      py      :     0.178771
      dz2     :     0.145237  d :     0.428811
      dxz     :     0.108008
      dyz     :     0.103110
      dx2y2   :     0.035708
      dxy     :     0.036748
  9 H s       :     0.536742  s :     0.536742
      pz      :     0.146955  p :     0.592381
      px      :     0.276142
      py      :     0.169285
      dz2     :     0.047923  d :     0.490630
      dxz     :     0.146783
      dyz     :     0.026308
      dx2y2   :     0.116466
      dxy     :     0.153151
 10 O s       :     2.951264  s :     2.951264
      pz      :     1.245844  p :     3.825525
      px      :     1.184216
      py      :     1.395465
      dz2     :     0.031116  d :     0.103836
      dxz     :     0.028295
      dyz     :     0.004753
      dx2y2   :     0.021264
      dxy     :     0.018408
      f0      :     0.003597  f :     0.019653
      f+1     :     0.006807
      f-1     :     0.000784
      f+2     :     0.002188
      f-2     :     0.000853
      f+3     :     0.003463
      f-3     :     0.001961
 11 H s       :     0.545767  s :     0.545767
      pz      :     0.209046  p :     0.497592
      px      :     0.141487
      py      :     0.147059
      dz2     :     0.113670  d :     0.352907
      dxz     :     0.087122
      dyz     :     0.090158
      dx2y2   :     0.033992
      dxy     :     0.027964
 12 H s       :     0.566422  s :     0.566422
      pz      :     0.146671  p :     0.556776
      px      :     0.244350
      py      :     0.165755
      dz2     :     0.031810  d :     0.413105
      dxz     :     0.133919
      dyz     :     0.022723
      dx2y2   :     0.114004
      dxy     :     0.110649
 13 O s       :     2.962851  s :     2.962851
      pz      :     1.268940  p :     3.835833
      px      :     1.231618
      py      :     1.335275
      dz2     :     0.035690  d :     0.094449
      dxz     :     0.007944
      dyz     :     0.013759
      dx2y2   :     0.017259
      dxy     :     0.019797
      f0      :     0.003467  f :     0.016541
      f+1     :     0.002806
      f-1     :     0.003449
      f+2     :     0.000700
      f-2     :     0.000395
      f+3     :     0.001027
      f-3     :     0.004698
 14 H s       :     0.510002  s :     0.510002
      pz      :     0.347313  p :     0.648883
      px      :     0.131966
      py      :     0.169604
      dz2     :     0.209173  d :     0.571242
      dxz     :     0.144144
      dyz     :     0.163456
      dx2y2   :     0.022378
      dxy     :     0.032090
 15 H s       :     0.551743  s :     0.551743
      pz      :     0.238466  p :     0.598018
      px      :     0.182715
      py      :     0.176837
      dz2     :     0.130918  d :     0.484798
      dxz     :     0.102537
      dyz     :     0.108063
      dx2y2   :     0.070954
      dxy     :     0.072326
 16 O s       :     2.992310  s :     2.992310
      pz      :     1.301275  p :     3.858246
      px      :     1.306491
      py      :     1.250481
      dz2     :     0.003397  d :     0.080620
      dxz     :     0.026953
      dyz     :     0.027866
      dx2y2   :     0.005300
[...]
   TCutMKN   ...     1.0e-03
   TCutDO    ...     5.0e-03
   TCutPairs ...     1.0e-05
   TCutCMO   ...     1.0e-03
   TCutCPAO  ...     1.0e-03

Thresholds for map construction and integral transformation for strong Triples:
   TCutMKN   ...     1.0e-02
   TCutDO    ...     1.0e-02
   TCutCMO   ...     1.0e-03
   TCutCPAO  ...     1.0e-03

Thresholds for map construction and integral transformation for weak Triples:
   TCutMKN   ...     1.0e-01
   TCutDO    ...     2.0e-02
   TCutCMO   ...     1.0e-03
   TCutCPAO  ...     1.0e-03

--------------------------------
LOCAL RI TRANSFORMATION (IAVPAO)
--------------------------------

Orbital window:       8 to 39
Number of PAOs:     736
Basis functions:    736 (256 shells)
Aux. functions:    1584 (448 shells)

Processing maps (0.0 sec)
Average map sizes:
   Aux shells -> MOs              31.9
   Aux shells -> PAOs            736.0
   MOs        -> AO shells       249.6
   PAOs       -> AO shells       256.0

Calculating integrals (2.8 sec, 283.868 MB)
Sorting integrals (0.9 sec, 283.850 MB)
Total time for the integral transformation: 3.9 sec
--------------------------------
INITIAL GUESS AND PNO GENERATION
--------------------------------

PNO truncation parameters                   .... 
    ScaleTCutPNO       =        1.000e-02
    PAOOverlapThresh   =        1.000e-08

    TCutPairs          =        1.000e-05
    TCutPNO            =        1.000e-07
    TCutPNOSingles     =        3.000e-09
    TCutMP2Pairs       =        1.000e-06
    TCutMKN            =        1.000e-03
    TCutDO             =        5.000e-03

Pair selection                          .... not used
Type of local MP2 treatment                 .... full local PMP2
Strategy for PNO selection                  .... occupation number selection
Pair density normalization                  .... MP2 norm
Spin component scaling                      .... not used

PASS-1: Formation of initial guess LMP2 amplitudes
Initial amplitudes guess done. Entering LMP2 iteration loop:
   Max. no of iterations          ...  50
   Energy convergence tolerance   ...    1.0e-07
   Residual convergence tolerance ...    5.0e-07
   Fock matrix cutoff             ...    1.0e-05 Eh
   DIIS convergence acceleration parameters:
        Max # vectors in DIIS     ... 7
        Start iteration of DIIS   ... 0
        Levelshift                ... 2.000e-01
        Damping factor 1          ... 5.000e-01
        Damping factor 2          ... 1.000e+00
   L-MP2 PNO cut-off              ...   1.0e-09
   L-MP2 PNO cut-off (core)       ...   1.0e-11
                           *** Turning on DIIS ***
LMP2-Iter=   0:  ELMP2= -2.168146133093  DE=   4.4e-02 RMAX=   5.6e-03
LMP2-Iter=   1:  ELMP2= -2.190208784022  DE=   2.2e-02 RMAX=   2.7e-03
LMP2-Iter=   2:  ELMP2= -2.193437981134  DE=   3.2e-03 RMAX=   5.6e-04
LMP2-Iter=   3:  ELMP2= -2.193851753635  DE=   4.1e-04 RMAX=   1.5e-04
LMP2-Iter=   4:  ELMP2= -2.193883505541  DE=   3.2e-05 RMAX=   2.1e-05
LMP2-Iter=   5:  ELMP2= -2.193882942313  DE=   5.6e-07 RMAX=   6.5e-06
LMP2-Iter=   6:  ELMP2= -2.193882760269  DE=   1.8e-07 RMAX=   7.6e-07
LMP2-Iter=   7:  ELMP2= -2.193882725634  DE=   3.5e-08 RMAX=   1.9e-07
LMP2-Iter=   8:  ELMP2= -2.193882736193  DE=   1.1e-08 RMAX=   4.4e-08 => CONVERGED
PASS-2: Formation of Pair natural orbitals
   .... Finished loop over pairs

 PNO Occupation Number Statistics: 
  | Av. % of trace(Dij) retained        ...  98.366675809247
  | sigma^2 in % of trace(Dij) retained ...   6.85e+00
  | Av. % of trace(Di) retained         ...  99.999758053272
  | sigma^2 in % of trace(Di) retained  ...   5.76e-09
 Distributions of % trace(Dij) recovered:
  |       >= 99.9  ...    85 ( 17.1 % of all pairs)
  |   [70.0, 80.0) ...     2 (  0.4 % of all pairs)
  |   [80.0, 90.0) ...    11 (  2.2 % of all pairs)
  |   [90.0, 99.0) ...   259 ( 52.2 % of all pairs)
  |   [99.0, 99.9) ...   139 ( 28.0 % of all pairs)
 Distributions of % trace(Di) recovered :
  |       >= 99.9  ...    32 (100.0 % of all I-pairs )

Making pair pair interaction lists          ... done

                       ===========================
                        341 OF  496 PAIRS ARE KEPT
                       ===========================

Total time spent in the initial guess                 ...    76.924 sec
L-MP2 correlation energy (all non-screened pairs)     ...      -2.193882736193 Eh
L-MP2 PNO error correction                            ...      -0.000041406886 Eh
                                                          --------------------
Initial total L-MP2 energy (non-screened pairs)       ...      -2.193924143078 Eh

Initial PNO correlation energy                        ...      -2.191926752906 Eh
sum of pair energies estimated for screened out pairs ...      -0.000021172569 Eh
sum of MP2 pair energies for pairs that were not kept ...      -0.000817824399 Eh
sum of PNO error estimates for the kept pairs         ...      -0.001295396131 Eh
                                                          --------------------
sum of all corrections                                         -0.002134393099
Initial total correlation energy                               -2.194061146005
Thresholds for map construction and integral transformation for fine MP2 and CCSD(T) calculation:
   TCutMKN   ...     1.0e-03
   TCutDO    ...     5.0e-03
   TCutPairs ...     1.0e-05
   TCutCMO   ...     1.0e-03
   TCutCPAO  ...     1.0e-03

Time for aux screen maps:            0.008
Time for maps after fine MP2:            0.037
-----------------------------
LOCAL RI TRANSFORMATION (IJV)
-----------------------------

Orbital window:       8 to 39
Basis functions:    736 (256 shells)
Aux. functions:    1584 (448 shells)

Processing maps (0.0 sec)
Average map sizes:
   Aux shells -> MOs(i)           30.7
   Aux shells -> MOs(j)           32.0
   MOs        -> AO shells       249.6

Calculating integrals (2.5 sec, 11.898 MB)
Sorting integrals (0.2 sec, 11.881 MB)
Total time for the integral transformation: 2.6 sec
--------------------------------
LOCAL RI TRANSFORMATION (VABPAO)
--------------------------------

Number of PAOs:     736
Basis functions:    736 (256 shells)
Aux. functions:    1584 (448 shells)

Processing maps (0.0 sec)
Average map sizes:
   Aux shells -> PAOs            736.0
   PAOs       -> AO shells       256.0

Calculating integrals (23.4 sec, 12476.995 MB)
Finished


-------------------------------------
Pair Pair Term precalculation with     
RI-(ij|mn) and (im|jn) transformation  
ON THE FLY                             
-------------------------------------

   IBatch   1 (of   4)              ... done (   35.958 sec)
   IBatch   2 (of   4)              ... done (   40.854 sec)
   IBatch   3 (of   4)              ... done (   73.992 sec)
   IBatch   4 (of   4)              ... done (   13.414 sec)
Total EXT                           ...         164.219 sec

---------------------
RI-PNO TRANSFORMATION
---------------------

Total Number of PNOs                   ...  9539
Average number of PNOs per pair        ...    27
Maximal number of PNOs per pair        ...    72
   #pairs with  1 -  5 PNOs   :    0
   #pairs with  6 - 10 PNOs   :   84
   #pairs with 11 - 15 PNOs   :   50
   #pairs with 16 - 20 PNOs   :   54
   #pairs with 21 - 25 PNOs   :   24
   #pairs with 26 - 30 PNOs   :   17
   #pairs with 31 - 35 PNOs   :   16
   #pairs with 36 - 40 PNOs   :   10
   #pairs with 41 - 45 PNOs   :    2
   #pairs with 46 - 50 PNOs   :    1
   #pairs with 51 - 55 PNOs   :    3
   #pairs with 56 - 60 PNOs   :   28
   #pairs with 61 - 65 PNOs   :    5
   #pairs with 66 - 70 PNOs   :   46
   #pairs with 71 - 75 PNOs   :    1

Generation of (ij|ab)[P] integrals            ... on
Generation of (ia|bc)[P],(ja|bc)[P] integrals ... on
Storage of 3 and 4 external integrals         ... on
Generation of ALL (ka|bc)[P] integrals        ... on
Keep RI integrals in memory                   ... off

Ibatch:  1 (of  1)
Starting 2-4 index PNO integral generation ... done

Timings:
Total PNO integral transformation time     ...        146.107 sec
Size of the 3-external file                ...       186 MB
Size of the 4-external file                ...      1445 MB
Size of the IKJL file                      ...         0 MB
Size of the all 3-external file            ...      2980 MB
Size of the 1-external file                ...         6 MB

Making pair/pair overlap matrices          ... done (   25.647 sec)
Size of the pair overlap file              ... 578 MB
Redoing the guess amplitudes               ... done (    0.010 sec)

-------------------------
FINAL STARTUP INFORMATION
-------------------------

E(0)                                       ...   -608.486188733
E(L-MP2)                                   ...     -2.193924143
E(L-MP2) including corrections             ...     -2.194061146
Initial E(tot)                             ...   -610.680249879
<T|T>                                      ...      0.471664719
Number of pairs included                   ... 341
Total number of pairs                      ... 528

------------------------------------------------
                  RHF COUPLED CLUSTER ITERATIONS
------------------------------------------------

Number of PNO amplitudes to be optimized   ...       428105
Number of non-PNO amplitudes               ...    165185856
Untruncated number of regular amplitudes   ...    255771648

Iter       E(tot)           E(Corr)          Delta-E          Residual     Time
  0   -610.610626585     -2.122303459      0.071620684      0.016535297   17.91
                           *** Turning on DIIS ***
  1   -610.654981773     -2.166658647     -0.044355188      0.008417728   17.89
  2   -610.700460307     -2.212137181     -0.045478534      0.002595917   17.90
  3   -610.709376170     -2.221053044     -0.008915864      0.001216882   18.02
  4   -610.711841453     -2.223518327     -0.002465283      0.000471448   17.93
  5   -610.712410090     -2.224086964     -0.000568637      0.000210827   17.87
  6   -610.712532546     -2.224209420     -0.000122456      0.000072104   17.85
  7   -610.712547632     -2.224224506     -0.000015086      0.000032993   17.93
  8   -610.712554898     -2.224231772     -0.000007266      0.000016069   18.00
               --- The Coupled-Cluster iterations have converged ---

----------------------
COUPLED CLUSTER ENERGY
----------------------

E(0)                                       ...   -608.486188733
E(CORR)(strong-pairs)                      ...     -2.224231772
E(CORR)(weak-pairs)                        ...     -0.002134393
E(CORR)(corrected)                         ...     -2.226366165
E(TOT)                                     ...   -610.712554898
Singles Norm <S|S>**1/2                    ...      0.084165451  
T1 diagnostic                              ...      0.010520681  

------------------
LARGEST AMPLITUDES
------------------
  27-> 40  27-> 40       0.042085
  31-> 40  31-> 40       0.039887
  26-> 40  26-> 40       0.039608
  29-> 40  29-> 40       0.038666
  39-> 40  39-> 40       0.038313
  35-> 40  35-> 40       0.037827
  32-> 40  32-> 40       0.036952
  25-> 40  25-> 40       0.036781
  37-> 40  37-> 40       0.036645
  28-> 40  28-> 40       0.036577
  38-> 40  38-> 40       0.036428
  33-> 41  33-> 41       0.036131
  35-> 47  35-> 47       0.034333
  39-> 47  39-> 47       0.033242
  36-> 41  36-> 41       0.033026
  25-> 47  25-> 47       0.032945


-------------------------------------------
DLPNO BASED TRIPLES CORRECTION
-------------------------------------------

Singles multiplier          ...  1.000000
TCutTNO                     ... 1.000e-09
TCutMP2Pairs                ... 1.000e-06
TCutDOStrong                ... 1.000e-02
TCutMKNStrong               ... 1.000e-02
TCutDOWeak                  ... 2.000e-02
TCutMKNWeak                 ... 1.000e-01

Fragment selection                          .... not used
Fock matrix occ-virt block is zero --> Setting DT_in_Triples to false.
Number of Triples that are to be computed   ...      3444

 . . . . . . . . .
10% done  
20% done  
30% done  
40% done               (    374.826 sec)
 . . . . . . . . .
50% done  
60% done  
70% done  
80% done  
90% done               (    475.473 sec)
Triples timings:
Total time for T0               ...   977.369 sec
Total time for Iterative (T)    ...     0.000 sec
Total time of overall (T)       ...   990.136 sec

Triples List generation         ...     0.000 sec
TNO generation                  ...   127.032 sec
Pair density generation         ...     0.009 sec
Look up tables                  ...     0.000 sec
Generating 3-index integrals    ...   730.258 sec
  Make 4-ind.int. from 3-ind.int...    11.854 sec
  Projecting amplitudes (D + S) ...    96.263 sec
  Downprojecting integrals      ...     0.003 sec
  Energy contr. (sum over a,b,c)...     2.687 sec
Fitting ET(->0)                 ...     0.000 sec

Everything after 3-index        ...   120.041 sec

Timing details:
 TNO integrals                  ...   740.575 sec
   Reading 3-index integrals    ...     5.519 sec
   Sorting integrals            ...    77.508 sec
       Sorting integrals 1      ...     0.003 sec
       Sorting integrals 2      ...    72.599 sec
       Sorting integrals 3      ...     0.464 sec
       Sorting integrals 4      ...     0.067 sec
       Sorting integrals 5      ...     0.616 sec
       Sorting integrals 6      ...     3.760 sec
   Calculating local VM**-1/2   ...     0.741 sec
   Orthogonal. integrals        ...     0.907 sec
   Multipl. 3-index integrals   ...   655.900 sec
   All concerning IRIab (w/TNO) ...     5.929 sec

 Calculate W0/W1                ...     9.225 sec
 W 3-ext contribution           ...     4.646 sec
 W 3-int contribution           ...     1.897 sec
 Sorting W                      ...     2.436 sec

 V exchange contribution        ...     0.965 sec

 Timings for Triples without generation
     of 3-index integrals       ...   120.037 sec
       0 weak pairs             ...    88.348 sec
       1 weak pair              ...    31.689 sec
       2 weak pairs             ...     0.000 sec
       3 weak pairs             ...     0.000 sec
  Extra time for extrapolation  ...     0.000 sec

Number of Triples   (0, 1, 2, 3 weak pairs; overall):   2137    1307       0       0  (  3444)
Number of Atoms     (0, 1, 2, 3 weak pairs; overall):   22.3    21.5     0.0     0.0  (    24)
Number of PAOs      (0, 1, 2, 3 weak pairs; overall):  681.5   663.4     0.0     0.0  (   736)
Number of AuxFcns   (0, 1, 2, 3 weak pairs; overall):  423.3   380.3     0.0     0.0  (  1584)
Number of TNOs      (0, 1, 2, 3 weak pairs         ):   73.3    41.5     0.0     0.0
Aver. Number of NTNO, Atoms, PAOs, AuxFcns / Triples:   3444    61.2    22.0   674.7   407.0

Triples Correction (T)                     ...     -0.072749148
Final correlation energy                   ...     -2.299115313
E(CCSD)                                    ...   -610.712554898
E(CCSD(T))                                 ...   -610.785304046


Maximum memory used throughout the entire calculation: 2021.5 MB


------------------------------------------------------------------------------- 
                                     TIMINGS                                   
------------------------------------------------------------------------------- 


Total execution time                   ...     1733.934 sec

Localization of occupied MO's          ...        1.280 sec (  0.1%)
Fock Matrix Formation                  ...       94.903 sec (  5.5%)
Global overlap, Fock, MKN matrices     ...        0.388 sec (  0.0%)
Differential overlap integrals         ...        0.327 sec (  0.0%)
Organizing maps                        ...        0.102 sec (  0.0%)
RI 3-index integral generations        ...       34.317 sec (  2.0%)
RI-PNO integral transformation         ...      347.618 sec ( 20.0%)
Initial Guess                          ...      102.153 sec (  5.9%)
DIIS Solver                            ...        4.384 sec (  0.3%)
State Vector Update                    ...        0.028 sec (  0.0%)
Sigma-vector construction              ...      160.768 sec (  9.3%)
  <D|H|D>(0-ext)                       ...        3.101 sec (  1.9% of sigma)
  <D|H|D>(2-ext Fock)                  ...        0.013 sec (  0.0% of sigma)
  <D|H|D>(2-ext)                       ...       43.465 sec ( 27.0% of sigma)
  <D|H|D>(4-ext)                       ...       13.637 sec (  8.5% of sigma)
  <D|H|D>(4-ext-corr)                  ...       63.303 sec ( 39.4% of sigma)
  CCSD doubles correction              ...        0.172 sec (  0.1% of sigma)
  <S|H|S>                              ...        1.495 sec (  0.9% of sigma)
  <S|H|D>(1-ext)                       ...        0.541 sec (  0.3% of sigma)
  <D|H|S>(1-ext)                       ...        0.013 sec (  0.0% of sigma)
  <S|H|D>(3-ext)                       ...        0.282 sec (  0.2% of sigma)
  Fock-dressing                        ...       15.912 sec (  9.9% of sigma)
  Singles amplitudes                   ...        1.047 sec (  0.7% of sigma)
  (ik|jl)-dressing                     ...        2.257 sec (  1.4% of sigma)
  (ij|ab),(ia|jb)-dressing             ...        2.571 sec (  1.6% of sigma)
  Pair energies                        ...        0.009 sec (  0.0% of sigma)
Total Time for computing (T)           ...      990.269 sec ( 57.1% of ALL)


-------------------------   --------------------
FINAL SINGLE POINT ENERGY      -610.785304045800
-------------------------   --------------------


                            ***************************************
                            *     ORCA property calculations      *
                            ***************************************

                                    ---------------------
                                    Active property flags
                                    ---------------------
   (+) Dipole Moment


------------------------------------------------------------------------------
                       ORCA ELECTRIC PROPERTIES CALCULATION
------------------------------------------------------------------------------

Dipole Moment Calculation                       ... on
Quadrupole Moment Calculation                   ... off
Polarizability Calculation                      ... off
GBWName                                         ... DLPNO_Cluster_TDP46.gbw
Electron density file                           ... DLPNO_Cluster_TDP46.scfp
The origin for moment calculation is the CENTER OF MASS  = ( 2.387009, -13.961447 -2.470803)

-------------
DIPOLE MOMENT
-------------
                                X             Y             Z
Electronic contribution:     -0.05604      -0.21431       0.18252
Nuclear contribution   :      2.32211       0.83555      -1.30278
                        -----------------------------------------
Total Dipole Moment    :      2.26607       0.62125      -1.12026
                        -----------------------------------------
Magnitude (a.u.)       :      2.60307
Magnitude (Debye)      :      6.61649



--------------------
Rotational spectrum 
--------------------
 
Rotational constants in cm-1:     0.034085     0.021967     0.016056 
Rotational constants in MHz :  1021.846547   658.542347   481.346776 

 Dipole components along the rotational axes: 
x,y,z [a.u.] :    -2.342104    -0.610429    -0.958079 
x,y,z [Debye]:    -5.953156    -1.551586    -2.435242 

 

Timings for individual modules:

Sum of individual times         ...     2282.997 sec (=  38.050 min)
GTO integral calculation        ...        5.821 sec (=   0.097 min)   0.3 %
SCF iterations                  ...      541.262 sec (=   9.021 min)  23.7 %
MDCI module                     ...     1735.914 sec (=  28.932 min)  76.0 %
                             ****ORCA TERMINATED NORMALLY****
TOTAL RUN TIME: 0 days 0 hours 38 minutes 4 seconds 594 msec
