
                                 *****************
                                 * O   R   C   A *
                                 *****************

                                            #,                                       
                                            ###                                      
                                            ####                                     
                                            #####                                    
                                            ######                                   
                                           ########,                                 
                                     ,,################,,,,,                         
                               ,,#################################,,                 
                          ,,##########################################,,             
                       ,#########################################, ''#####,          
                    ,#############################################,,   '####,        
                  ,##################################################,,,,####,       
                ,###########''''           ''''###############################       
              ,#####''   ,,,,##########,,,,          '''####'''          '####       
            ,##' ,,,,###########################,,,                        '##       
           ' ,,###''''                  '''############,,,                           
         ,,##''                                '''############,,,,        ,,,,,,###''
      ,#''                                            '''#######################'''  
     '                                                          ''''####''''         
             ,#######,   #######,   ,#######,      ##                                
            ,#'     '#,  ##    ##  ,#'     '#,    #''#        ######   ,####,        
            ##       ##  ##   ,#'  ##            #'  '#       #        #'  '#        
            ##       ##  #######   ##           ,######,      #####,   #    #        
            '#,     ,#'  ##    ##  '#,     ,#' ,#      #,         ##   #,  ,#        
             '#######'   ##     ##  '#######'  #'      '#     #####' # '####'        



                  #######################################################
                  #                        -***-                        #
                  #          Department of theory and spectroscopy      #
                  #    Directorship and core code : Frank Neese         #
                  #        Max Planck Institute fuer Kohlenforschung    #
                  #                Kaiser Wilhelm Platz 1               #
                  #                 D-45470 Muelheim/Ruhr               #
                  #                      Germany                        #
                  #                                                     #
                  #                  All rights reserved                #
                  #                        -***-                        #
                  #######################################################


                         Program Version 5.0.2 -  RELEASE  -


 With contributions from (in alphabetic order):
   Daniel Aravena         : Magnetic Suceptibility
   Michael Atanasov       : Ab Initio Ligand Field Theory (pilot matlab implementation)
   Alexander A. Auer      : GIAO ZORA, VPT2 properties, NMR spectrum
   Ute Becker             : Parallelization
   Giovanni Bistoni       : ED, misc. LED, open-shell LED, HFLD
   Martin Brehm           : Molecular dynamics
   Dmytro Bykov           : SCF Hessian
   Vijay G. Chilkuri      : MRCI spin determinant printing, contributions to CSF-ICE
   Dipayan Datta          : RHF DLPNO-CCSD density
   Achintya Kumar Dutta   : EOM-CC, STEOM-CC
   Dmitry Ganyushin       : Spin-Orbit,Spin-Spin,Magnetic field MRCI
   Miquel Garcia          : C-PCM and meta-GGA Hessian, CC/C-PCM, Gaussian charge scheme
   Yang Guo               : DLPNO-NEVPT2, F12-NEVPT2, CIM, IAO-localization
   Andreas Hansen         : Spin unrestricted coupled pair/coupled cluster methods
   Benjamin Helmich-Paris : MC-RPA, TRAH-SCF, COSX integrals
   Lee Huntington         : MR-EOM, pCC
   Robert Izsak           : Overlap fitted RIJCOSX, COSX-SCS-MP3, EOM
   Marcus Kettner         : VPT2
   Christian Kollmar      : KDIIS, OOCD, Brueckner-CCSD(T), CCSD density, CASPT2, CASPT2-K
   Simone Kossmann        : Meta GGA functionals, TD-DFT gradient, OOMP2, MP2 Hessian
   Martin Krupicka        : Initial AUTO-CI
   Lucas Lang             : DCDCAS
   Marvin Lechner         : AUTO-CI (C++ implementation), FIC-MRCC
   Dagmar Lenk            : GEPOL surface, SMD
   Dimitrios Liakos       : Extrapolation schemes; Compound Job, initial MDCI parallelization
   Dimitrios Manganas     : Further ROCIS development; embedding schemes
   Dimitrios Pantazis     : SARC Basis sets
   Anastasios Papadopoulos: AUTO-CI, single reference methods and gradients
   Taras Petrenko         : DFT Hessian,TD-DFT gradient, ASA, ECA, R-Raman, ABS, FL, XAS/XES, NRVS
   Peter Pinski           : DLPNO-MP2, DLPNO-MP2 Gradient
   Christoph Reimann      : Effective Core Potentials
   Marius Retegan         : Local ZFS, SOC
   Christoph Riplinger    : Optimizer, TS searches, QM/MM, DLPNO-CCSD(T), (RO)-DLPNO pert. Triples
   Tobias Risthaus        : Range-separated hybrids, TD-DFT gradient, RPA, STAB
   Michael Roemelt        : Original ROCIS implementation
   Masaaki Saitow         : Open-shell DLPNO-CCSD energy and density
   Barbara Sandhoefer     : DKH picture change effects
   Avijit Sen             : IP-ROCIS
   Kantharuban Sivalingam : CASSCF convergence, NEVPT2, FIC-MRCI
   Bernardo de Souza      : ESD, SOC TD-DFT
   Georgi Stoychev        : AutoAux, RI-MP2 NMR, DLPNO-MP2 response
   Willem Van den Heuvel  : Paramagnetic NMR
   Boris Wezisla          : Elementary symmetry handling
   Frank Wennmohs         : Technical directorship


 We gratefully acknowledge several colleagues who have allowed us to
 interface, adapt or use parts of their codes:
   Stefan Grimme, W. Hujo, H. Kruse, P. Pracht,  : VdW corrections, initial TS optimization,
                  C. Bannwarth, S. Ehlert          DFT functionals, gCP, sTDA/sTD-DF
   Ed Valeev, F. Pavosevic, A. Kumar             : LibInt (2-el integral package), F12 methods
   Garnet Chan, S. Sharma, J. Yang, R. Olivares  : DMRG
   Ulf Ekstrom                                   : XCFun DFT Library
   Mihaly Kallay                                 : mrcc  (arbitrary order and MRCC methods)
   Jiri Pittner, Ondrej Demel                    : Mk-CCSD
   Frank Weinhold                                : gennbo (NPA and NBO analysis)
   Christopher J. Cramer and Donald G. Truhlar   : smd solvation model
   Lars Goerigk                                  : TD-DFT with DH, B97 family of functionals
   V. Asgeirsson, H. Jonsson                     : NEB implementation
   FAccTs GmbH                                   : IRC, NEB, NEB-TS, DLPNO-Multilevel, CI-OPT
                                                   MM, QMMM, 2- and 3-layer-ONIOM, Crystal-QMMM,
                                                   LR-CPCM, SF, NACMEs, symmetry and pop. for TD-DFT,
                                                   nearIR, NL-DFT gradient (VV10), updates on ESD,
                                                   ML-optimized integration grids
   S Lehtola, MJT Oliveira, MAL Marques          : LibXC Library
   Liviu Ungur et al                             : ANISO software


 Your calculation uses the libint2 library for the computation of 2-el integrals
 For citations please refer to: http://libint.valeyev.net

 Your ORCA version has been built with support for libXC version: 5.1.0
 For citations please refer to: https://tddft.org/programs/libxc/

 This ORCA versions uses:
   CBLAS   interface :  Fast vector & matrix operations
   LAPACKE interface :  Fast linear algebra routines
   SCALAPACK package :  Parallel linear algebra routines
   Shared memory     :  Shared parallel matrices
   BLAS/LAPACK       :  OpenBLAS 0.3.15  USE64BITINT DYNAMIC_ARCH NO_AFFINITY Haswell SINGLE_THREADED
        Core in use  :  Haswell
   Copyright (c) 2011-2014, The OpenBLAS Project




***************************************
The coordinates will be read from file: ch3oh.xyz
***************************************


================================================================================

----- Orbital basis set information -----
Your calculation utilizes the basis: aug-cc-pVTZ 
    H, B-Ne : Obtained from the ccRepo (grant-hill.group.shef.ac.uk/ccrepo) Feb. 2017
              R. A. Kendall, T. H. Dunning, Jr., R. J. Harrison, J. Chem. Phys. 96, 6796 (1992)
         He : Obtained from the ccRepo (grant-hill.group.shef.ac.uk/ccrepo) Feb. 2017
              D. E. Woon, T. H. Dunning, Jr., J. Chem. Phys. 100, 2975 (1994)
  Li-Be, Na : Obtained from the ccRepo (grant-hill.group.shef.ac.uk/ccrepo) Feb. 2017
              B. P. Prascher, D. E. Woon, K. A. Peterson, T. H. Dunning, Jr., A. K. Wilson, Theor. Chem. Acc. 128, 69 (2011)
         Mg : Obtained from the Peterson Research Group Website (tyr0.chem.wsu.edu/~kipeters) Feb. 2017
              B. P. Prascher, D. E. Woon, K. A. Peterson, T. H. Dunning, Jr., A. K. Wilson, Theor. Chem. Acc. 128, 69 (2011)
      Al-Ar : Obtained from the ccRepo (grant-hill.group.shef.ac.uk/ccrepo) Feb. 2017
              D. E. Woon, T. H. Dunning, Jr., J. Chem. Phys. 98, 1358 (1993)
      Sc-Zn : Obtained from the ccRepo (grant-hill.group.shef.ac.uk/ccrepo) Feb. 2017
              N. B. Balabanov, K. A. Peterson, J. Chem. Phys. 123, 064107 (2005)
              N. B. Balabanov, K. A. Peterson, J. Chem. Phys. 125, 074110 (2006)
      Ga-Kr : Obtained from the ccRepo (grant-hill.group.shef.ac.uk/ccrepo) Feb. 2017
              A. K. Wilson, D. E. Woon, K. A. Peterson, T. H. Dunning, Jr., J. Chem. Phys. 110, 7667 (1999)
     Ag, Au : Obtained from the Peterson Research Group Website (tyr0.chem.wsu.edu/~kipeters) Feb. 2017
              K. A. Peterson, C. Puzzarini, Theor. Chem. Acc. 114, 283 (2005)

----- AuxC basis set information -----
Your calculation utilizes the auxiliary basis: aug-cc-pVTZ/C 
  H-He, B-F, Al-Ar, Ga-Kr : Obtained from the EMSL Basis Set Exchange (bse.pnl.gov) Feb. 2017
                            F. Weigend, A. Kohn, C. Hattig, J. Chem. Phys. 116, 3175 (2002)
                   Be, Mg : Obtained from the TURBOMOLE 7.0 basis set library
                            C. Haettig, Phys. Chem. Chem. Phys. 7, 59 (2005)
                       Ne : Obtained from the EMSL Basis Set Exchange (bse.pnl.gov) Feb. 2017
                            C. Haettig, Phys. Chem. Chem. Phys. 7, 59 (2005)
                            F. Weigend, A. Kohn, C. Hattig, J. Chem. Phys. 116, 3175 (2002)
                    Sc-Zn : Obtained from the EMSL Basis Set Exchange (bse.pnl.gov) Feb. 2017
                            J. G. Hill, J. A. Platts, J. Chem. Phys. 128, 044104 (2008)

================================================================================
                                        WARNINGS
                       Please study these warnings very carefully!
================================================================================


WARNING: Post HF methods need fully converged wavefunctions
  ===> : Setting SCFConvForced true
         You can overwrite this default with %scf ConvForced false 


WARNING: MDCI localization with Augmented Hessian Foster-Boys
  ===> : Switching off randomization!

INFO   : the flag for use of the SHARK integral package has been found!

================================================================================
                                       INPUT FILE
================================================================================
NAME = ch3oh.inp
|  1> ! DLPNO-CCSD(T) aug-cc-pVTZ aug-cc-pVTZ/C TightPNO
|  2> %pal
|  3> nprocs 6
|  4> end
|  5> *xyzfile 0 1 ch3oh.xyz
|  6> 
|  7> 
|  8>                          ****END OF INPUT****
================================================================================

                       ****************************
                       * Single Point Calculation *
                       ****************************

---------------------------------
CARTESIAN COORDINATES (ANGSTROEM)
---------------------------------
  C     -0.046529    0.661592   -0.000000
  O     -0.041771   -0.758940    0.000000
  H     -1.088389    0.972331   -0.000000
  H      0.875374   -1.051706    0.000000
  H      0.433441    1.082320    0.889356
  H      0.433441    1.082320   -0.889356

----------------------------
CARTESIAN COORDINATES (A.U.)
----------------------------
  NO LB      ZA    FRAG     MASS         X           Y           Z
   0 C     6.0000    0    12.011   -0.087927    1.250227   -0.000000
   1 O     8.0000    0    15.999   -0.078935   -1.434188    0.000000
   2 H     1.0000    0     1.008   -2.056757    1.837440   -0.000000
   3 H     1.0000    0     1.008    1.654217   -1.987437    0.000000
   4 H     1.0000    0     1.008    0.819084    2.045288    1.680639
   5 H     1.0000    0     1.008    0.819084    2.045288   -1.680639

--------------------------------
INTERNAL COORDINATES (ANGSTROEM)
--------------------------------
 C      0   0   0     0.000000000000     0.00000000     0.00000000
 O      1   0   0     1.420539198086     0.00000000     0.00000000
 H      1   2   0     1.087212262306   106.79939768     0.00000000
 H      2   1   3     0.962739331413   107.89579099   180.00000000
 H      1   2   3     1.094686122447   112.51133640   118.42510294
 H      1   2   3     1.094686123584   112.51133684   241.57489729

---------------------------
INTERNAL COORDINATES (A.U.)
---------------------------
 C      0   0   0     0.000000000000     0.00000000     0.00000000
 O      1   0   0     2.684430046882     0.00000000     0.00000000
 H      1   2   0     2.054533425200   106.79939768     0.00000000
 H      2   1   3     1.819313674724   107.89579099   180.00000000
 H      1   2   3     2.068656974028   112.51133640   118.42510294
 H      1   2   3     2.068656976178   112.51133684   241.57489729

---------------------
BASIS SET INFORMATION
---------------------
There are 3 groups of distinct atoms

 Group   1 Type C   : 19s6p3d2f contracted to 5s4p3d2f pattern {88111/3111/111/11}
 Group   2 Type O   : 19s6p3d2f contracted to 5s4p3d2f pattern {88111/3111/111/11}
 Group   3 Type H   : 6s3p2d contracted to 4s3p2d pattern {3111/111/11}

Atom   0C    basis set group =>   1
Atom   1O    basis set group =>   2
Atom   2H    basis set group =>   3
Atom   3H    basis set group =>   3
Atom   4H    basis set group =>   3
Atom   5H    basis set group =>   3
---------------------------------
AUXILIARY/C BASIS SET INFORMATION
---------------------------------
There are 3 groups of distinct atoms

 Group   1 Type C   : 9s7p6d4f2g contracted to 9s7p6d4f2g pattern {111111111/1111111/111111/1111/11}
 Group   2 Type O   : 9s7p6d4f2g contracted to 9s7p6d4f2g pattern {111111111/1111111/111111/1111/11}
 Group   3 Type H   : 5s4p3d2f contracted to 5s4p3d2f pattern {11111/1111/111/11}

Atom   0C    basis set group =>   1
Atom   1O    basis set group =>   2
Atom   2H    basis set group =>   3
Atom   3H    basis set group =>   3
Atom   4H    basis set group =>   3
Atom   5H    basis set group =>   3


           ************************************************************
           *        Program running with 6 parallel MPI-processes     *
           *              working on a common directory               *
           ************************************************************
------------------------------------------------------------------------------
                           ORCA GTO INTEGRAL CALCULATION
------------------------------------------------------------------------------
------------------------------------------------------------------------------
                   ___                                                        
                  /   \      - P O W E R E D   B Y -                         
                 /     \                                                     
                 |  |  |   _    _      __       _____    __    __             
                 |  |  |  | |  | |    /  \     |  _  \  |  |  /  |          
                  \  \/   | |  | |   /    \    | | | |  |  | /  /          
                 / \  \   | |__| |  /  /\  \   | |_| |  |  |/  /          
                |  |  |   |  __  | /  /__\  \  |    /   |      \           
                |  |  |   | |  | | |   __   |  |    \   |  |\   \          
                \     /   | |  | | |  |  |  |  | |\  \  |  | \   \       
                 \___/    |_|  |_| |__|  |__|  |_| \__\ |__|  \__/        
                                                                              
                      - O R C A' S   B I G   F R I E N D -                    
                                      &                                       
                       - I N T E G R A L  F E E D E R -                       
                                                                              
 v1 FN, 2020, v2 2021                                                         
------------------------------------------------------------------------------


Reading SHARK input file ch3oh.SHARKINP.tmp ... ok
----------------------
SHARK INTEGRAL PACKAGE
----------------------

Number of atoms                             ...      6
Number of basis functions                   ...    196
Number of shells                            ...     76
Maximum angular momentum                    ...      3
Integral batch strategy                     ... SHARK/LIBINT Hybrid
RI-J (if used) integral strategy            ... SPLIT-RIJ (Revised 2003 algorithm where possible)
Printlevel                                  ...      1
Contraction scheme used                     ... PARTIAL GENERAL contraction
Coulomb Range Separation                    ... NOT USED
Exchange Range Separation                   ... NOT USED
Finite Nucleus Model                        ... NOT USED
Auxiliary Coulomb fitting basis             ... NOT available
Auxiliary J/K fitting basis                 ... NOT available
Auxiliary Correlation fitting basis         ... AVAILABLE
   # of basis functions in Aux-C            ...    396
   # of shells in Aux-C                     ...    112
   Maximum angular momentum in Aux-C        ...      4
Auxiliary 'external' fitting basis          ... NOT available
Integral threshold                          ...     1.000000e-10
Primitive cut-off                           ...     1.000000e-11
Primitive pair pre-selection threshold      ...     1.000000e-11

Calculating pre-screening integrals         ... done (  0.0 sec) Dimension = 76
Calculating pre-screening integrals (ORCA)  ... done (  0.1 sec) Dimension = 64
Organizing shell pair data                  ... done (  0.1 sec)
Shell pair information
Total number of shell pairs                 ...      2926
Shell pairs after pre-screening             ...      2882
Total number of primitive shell pairs       ...      3934
Primitive shell pairs kept                  ...      3731
          la=0 lb=0:    697 shell pairs
          la=1 lb=0:    760 shell pairs
          la=1 lb=1:    210 shell pairs
          la=2 lb=0:    532 shell pairs
          la=2 lb=1:    280 shell pairs
          la=2 lb=2:    105 shell pairs
          la=3 lb=0:    152 shell pairs
          la=3 lb=1:     80 shell pairs
          la=3 lb=2:     56 shell pairs
          la=3 lb=3:     10 shell pairs

Calculating one electron integrals          ... done (  0.0 sec)
Calculating RI/C V-Matrix + Cholesky decomp.... done (  0.2 sec)
Calculating Nuclear repulsion               ... done (  0.0 sec) ENN=     40.291168420507 Eh

SHARK setup successfully completed in   1.1 seconds

Maximum memory used throughout the entire GTOINT-calculation: 19.5 MB


           ************************************************************
           *        Program running with 6 parallel MPI-processes     *
           *              working on a common directory               *
           ************************************************************
-------------------------------------------------------------------------------
                                 ORCA SCF
-------------------------------------------------------------------------------

------------
SCF SETTINGS
------------
Hamiltonian:
 Ab initio Hamiltonian  Method          .... Hartree-Fock(GTOs)


General Settings:
 Integral files         IntName         .... ch3oh
 Hartree-Fock type      HFTyp           .... RHF
 Total Charge           Charge          ....    0
 Multiplicity           Mult            ....    1
 Number of Electrons    NEL             ....   18
 Basis Dimension        Dim             ....  184
 Nuclear Repulsion      ENuc            ....     40.2911684205 Eh

Convergence Acceleration:
 DIIS                   CNVDIIS         .... on
   Start iteration      DIISMaxIt       ....    12
   Startup error        DIISStart       ....  0.200000
   # of expansion vecs  DIISMaxEq       ....     5
   Bias factor          DIISBfac        ....   1.050
   Max. coefficient     DIISMaxC        ....  10.000
 Trust-Rad. Augm. Hess. CNVTRAH         .... auto
   Auto Start mean grad. ratio tolernc. ....  1.125000
   Auto Start start iteration           ....    20
   Auto Start num. interpolation iter.  ....    10
   Max. Number of Micro iterations      ....    16
   Max. Number of Macro iterations      .... Maxiter - #DIIS iter
   Number of Davidson start vectors     ....     2
   Converg. threshold I  (grad. norm)   ....   5.000e-05
   Converg. threshold II (energy diff.) ....   1.000e-06
   Grad. Scal. Fac. for Micro threshold ....   0.100
   Minimum threshold for Micro iter.    ....   0.010
   NR start threshold (gradient norm)   ....   0.001
   Initial trust radius                 ....   0.400
   Minimum AH scaling param. (alpha)    ....   1.000
   Maximum AH scaling param. (alpha)    .... 1000.000
   Orbital update algorithm             .... Taylor
   White noise on init. David. guess    .... on
   Maximum white noise                  ....   0.010
   Quad. conv. algorithm                .... NR
 SOSCF                  CNVSOSCF        .... on
   Start iteration      SOSCFMaxIt      ....   150
   Startup grad/error   SOSCFStart      ....  0.003300
 Level Shifting         CNVShift        .... on
   Level shift para.    LevelShift      ....    0.2500
   Turn off err/grad.   ShiftErr        ....    0.0010
 Zerner damping         CNVZerner       .... off
 Static damping         CNVDamp         .... on
   Fraction old density DampFac         ....    0.7000
   Max. Damping (<1)    DampMax         ....    0.9800
   Min. Damping (>=0)   DampMin         ....    0.0000
   Turn off err/grad.   DampErr         ....    0.1000
 Fernandez-Rico         CNVRico         .... off

SCF Procedure:
 Maximum # iterations   MaxIter         ....   125
 SCF integral mode      SCFMode         .... Direct
   Integral package                     .... SHARK and LIBINT hybrid scheme
 Reset frequency        DirectResetFreq ....    20
 Integral Threshold     Thresh          ....  1.000e-10 Eh
 Primitive CutOff       TCut            ....  1.000e-11 Eh

Convergence Tolerance:
 Convergence Check Mode ConvCheckMode   .... Total+1el-Energy
 Convergence forced     ConvForced      .... 1
 Energy Change          TolE            ....  1.000e-06 Eh
 1-El. energy change                    ....  1.000e-03 Eh
 Orbital Gradient       TolG            ....  5.000e-05
 Orbital Rotation angle TolX            ....  5.000e-05
 DIIS Error             TolErr          ....  1.000e-06


Diagonalization of the overlap matrix:
Smallest eigenvalue                        ... 6.265e-05
Time for diagonalization                   ...    0.055 sec
Threshold for overlap eigenvalues          ... 1.000e-08
Number of eigenvalues below threshold      ... 0
Time for construction of square roots      ...    0.106 sec
Total time needed                          ...    0.163 sec

Time for model grid setup =    0.174 sec

------------------------------
INITIAL GUESS: MODEL POTENTIAL
------------------------------
Loading Hartree-Fock densities                     ... done
Calculating cut-offs                               ... done
Initializing the effective Hamiltonian             ... done
Setting up the integral package (SHARK)            ... done
Starting the Coulomb interaction                   ... done (   0.5 sec)
Reading the grid                                   ... done
Mapping shells                                     ... done
Starting the XC term evaluation                    ... done (   0.0 sec)
Transforming the Hamiltonian                       ... done (   0.0 sec)
Diagonalizing the Hamiltonian                      ... done (   0.0 sec)
Back transforming the eigenvectors                 ... done (   0.0 sec)
Now organizing SCF variables                       ... done
                      ------------------
                      INITIAL GUESS DONE (   0.8 sec)
                      ------------------
--------------
SCF ITERATIONS
--------------
ITER       Energy         Delta-E        Max-DP      RMS-DP      [F,P]     Damp
               ***  Starting incremental Fock matrix formation  ***
  0   -114.9703685502   0.000000000000 0.02778913  0.00066900  0.3097599 0.7000
  1   -115.0144506283  -0.044082078170 0.02041296  0.00048146  0.1864868 0.7000
                               ***Turning on DIIS***
  2   -115.0399518157  -0.025501187407 0.01486264  0.00030801  0.1103670 0.7000
  3   -115.3120374208  -0.272085605090 0.03724429  0.00068670  0.0830288 0.0000
  4   -115.0700738386   0.241963582190 0.00501669  0.00010153  0.0062699 0.0000
                      *** Initiating the SOSCF procedure ***
                           *** Shutting down DIIS ***
                      *** Re-Reading the Fockian *** 
                      *** Removing any level shift *** 
ITER      Energy       Delta-E        Grad      Rot      Max-DP    RMS-DP
  5   -115.09067948  -0.0206056422  0.001003  0.001003  0.001439  0.000038
               *** Restarting incremental Fock matrix formation ***
  6   -115.09186751  -0.0011880302  0.000322  0.000507  0.001071  0.000018
  7   -115.09187322  -0.0000057087  0.000146  0.000414  0.000405  0.000011
  8   -115.09187428  -0.0000010560  0.000065  0.000049  0.000051  0.000002
                 **** Energy Check signals convergence ****
              ***Rediagonalizing the Fockian in SOSCF/NRSCF***

               *****************************************************
               *                     SUCCESS                       *
               *           SCF CONVERGED AFTER   9 CYCLES          *
               *****************************************************


----------------
TOTAL SCF ENERGY
----------------

Total Energy       :         -115.09187436 Eh           -3131.80912 eV

Components:
Nuclear Repulsion  :           40.29116842 Eh            1096.37843 eV
Electronic Energy  :         -155.38304278 Eh           -4228.18755 eV
One Electron Energy:         -236.81516371 Eh           -6444.06821 eV
Two Electron Energy:           81.43212093 Eh            2215.88066 eV

Virial components:
Potential Energy   :         -229.99919979 Eh           -6258.59641 eV
Kinetic Energy     :          114.90732542 Eh            3126.78729 eV
Virial Ratio       :            2.00160607


---------------
SCF CONVERGENCE
---------------

  Last Energy change         ...   -8.8535e-08  Tolerance :   1.0000e-06
  Last MAX-Density change    ...    3.3646e-05  Tolerance :   1.0000e-05
  Last RMS-Density change    ...    5.6843e-07  Tolerance :   1.0000e-06
  Last Orbital Gradient      ...    1.4248e-05  Tolerance :   5.0000e-05
  Last Orbital Rotation      ...    1.0575e-05  Tolerance :   5.0000e-05

             **** THE GBW FILE WAS UPDATED (ch3oh.gbw) ****
             **** DENSITY ch3oh.scfp WAS UPDATED ****
             **** ENERGY FILE WAS UPDATED (ch3oh.en.tmp) ****
             **** THE GBW FILE WAS UPDATED (ch3oh.gbw) ****
             **** DENSITY ch3oh.scfp WAS UPDATED ****
----------------
ORBITAL ENERGIES
----------------

  NO   OCC          E(Eh)            E(eV) 
   0   2.0000     -20.560383      -559.4765 
   1   2.0000     -11.271673      -306.7178 
   2   2.0000      -1.357645       -36.9434 
   3   2.0000      -0.925563       -25.1859 
   4   2.0000      -0.691091       -18.8055 
   5   2.0000      -0.619635       -16.8611 
   6   2.0000      -0.593404       -16.1473 
   7   2.0000      -0.504354       -13.7242 
   8   2.0000      -0.452005       -12.2997 
   9   0.0000       0.028476         0.7749 
  10   0.0000       0.042928         1.1681 
  11   0.0000       0.046654         1.2695 
  12   0.0000       0.053023         1.4428 
  13   0.0000       0.099094         2.6965 
  14   0.0000       0.116550         3.1715 
  15   0.0000       0.129229         3.5165 
  16   0.0000       0.139951         3.8083 
  17   0.0000       0.165398         4.5007 
  18   0.0000       0.172990         4.7073 
  19   0.0000       0.182817         4.9747 
  20   0.0000       0.211246         5.7483 
  21   0.0000       0.215634         5.8677 
  22   0.0000       0.268345         7.3020 
  23   0.0000       0.269077         7.3219 
  24   0.0000       0.293146         7.9769 
  25   0.0000       0.300489         8.1767 
  26   0.0000       0.320824         8.7301 
  27   0.0000       0.321790         8.7564 
  28   0.0000       0.333155         9.0656 
  29   0.0000       0.343385         9.3440 
  30   0.0000       0.351600         9.5675 
  31   0.0000       0.369045        10.0422 
  32   0.0000       0.391373        10.6498 
  33   0.0000       0.408690        11.1210 
  34   0.0000       0.433216        11.7884 
  35   0.0000       0.437072        11.8933 
  36   0.0000       0.446105        12.1391 
  37   0.0000       0.454607        12.3705 
  38   0.0000       0.460700        12.5363 
  39   0.0000       0.479726        13.0540 
  40   0.0000       0.506002        13.7690 
  41   0.0000       0.514052        13.9881 
  42   0.0000       0.525312        14.2945 
  43   0.0000       0.664415        18.0797 
  44   0.0000       0.668093        18.1797 
  45   0.0000       0.680936        18.5292 
  46   0.0000       0.753891        20.5144 
  47   0.0000       0.770392        20.9634 
  48   0.0000       0.780494        21.2383 
  49   0.0000       0.791752        21.5447 
  50   0.0000       0.805601        21.9215 
  51   0.0000       0.850155        23.1339 
  52   0.0000       0.856619        23.3098 
  53   0.0000       0.887153        24.1406 
  54   0.0000       0.900016        24.4907 
  55   0.0000       0.931825        25.3562 
  56   0.0000       0.935463        25.4552 
  57   0.0000       0.937574        25.5127 
  58   0.0000       0.949512        25.8375 
  59   0.0000       0.974371        26.5140 
  60   0.0000       0.978459        26.6252 
  61   0.0000       0.983549        26.7637 
  62   0.0000       1.016708        27.6660 
  63   0.0000       1.043072        28.3834 
  64   0.0000       1.070655        29.1340 
  65   0.0000       1.073002        29.1979 
  66   0.0000       1.093856        29.7653 
  67   0.0000       1.110102        30.2074 
  68   0.0000       1.123100        30.5611 
  69   0.0000       1.138586        30.9825 
  70   0.0000       1.145149        31.1611 
  71   0.0000       1.177977        32.0544 
  72   0.0000       1.200167        32.6582 
  73   0.0000       1.202771        32.7291 
  74   0.0000       1.251253        34.0483 
  75   0.0000       1.296237        35.2724 
  76   0.0000       1.315684        35.8016 
  77   0.0000       1.371459        37.3193 
  78   0.0000       1.407976        38.3130 
  79   0.0000       1.436882        39.0995 
  80   0.0000       1.531518        41.6747 
  81   0.0000       1.554901        42.3110 
  82   0.0000       1.559207        42.4282 
  83   0.0000       1.593350        43.3573 
  84   0.0000       1.600258        43.5452 
  85   0.0000       1.612654        43.8825 
  86   0.0000       1.650426        44.9104 
  87   0.0000       1.658296        45.1245 
  88   0.0000       1.671141        45.4741 
  89   0.0000       1.701178        46.2914 
  90   0.0000       1.732317        47.1387 
  91   0.0000       1.754010        47.7290 
  92   0.0000       1.887117        51.3511 
  93   0.0000       1.933852        52.6228 
  94   0.0000       1.956858        53.2488 
  95   0.0000       1.975090        53.7449 
  96   0.0000       2.034032        55.3488 
  97   0.0000       2.038917        55.4817 
  98   0.0000       2.072484        56.3952 
  99   0.0000       2.080496        56.6132 
 100   0.0000       2.164294        58.8934 
 101   0.0000       2.177305        59.2475 
 102   0.0000       2.377080        64.6836 
 103   0.0000       2.475251        67.3550 
 104   0.0000       2.482127        67.5421 
 105   0.0000       2.512691        68.3738 
 106   0.0000       2.553775        69.4918 
 107   0.0000       2.579749        70.1985 
 108   0.0000       2.731285        74.3221 
 109   0.0000       2.755753        74.9878 
 110   0.0000       2.782125        75.7055 
 111   0.0000       2.840768        77.3012 
 112   0.0000       2.888304        78.5947 
 113   0.0000       2.943511        80.0970 
 114   0.0000       2.979674        81.0811 
 115   0.0000       3.046309        82.8943 
 116   0.0000       3.186738        86.7156 
 117   0.0000       3.317766        90.2810 
 118   0.0000       3.380955        92.0005 
 119   0.0000       3.527561        95.9898 
 120   0.0000       3.549167        96.5777 
 121   0.0000       3.578685        97.3810 
 122   0.0000       3.624761        98.6348 
 123   0.0000       3.633884        98.8830 
 124   0.0000       3.701589       100.7254 
 125   0.0000       3.776251       102.7570 
 126   0.0000       3.855595       104.9161 
 127   0.0000       3.886497       105.7570 
 128   0.0000       3.933769       107.0433 
 129   0.0000       3.943689       107.3132 
 130   0.0000       3.989882       108.5702 
 131   0.0000       4.061577       110.5211 
 132   0.0000       4.083475       111.1170 
 133   0.0000       4.101451       111.6062 
 134   0.0000       4.165436       113.3473 
 135   0.0000       4.201696       114.3339 
 136   0.0000       4.223796       114.9353 
 137   0.0000       4.229876       115.1008 
 138   0.0000       4.280163       116.4692 
 139   0.0000       4.470005       121.6350 
 140   0.0000       4.498616       122.4136 
 141   0.0000       4.517146       122.9178 
 142   0.0000       4.547302       123.7384 
 143   0.0000       4.605005       125.3086 
 144   0.0000       4.641394       126.2988 
 145   0.0000       4.755016       129.3906 
 146   0.0000       4.755443       129.4022 
 147   0.0000       4.760130       129.5297 
 148   0.0000       4.905423       133.4834 
 149   0.0000       4.964986       135.1041 
 150   0.0000       5.015195       136.4704 
 151   0.0000       5.027771       136.8126 
 152   0.0000       5.059955       137.6884 
 153   0.0000       5.131159       139.6259 
 154   0.0000       5.239581       142.5762 
 155   0.0000       5.253101       142.9442 
 156   0.0000       5.375249       146.2680 
 157   0.0000       5.466124       148.7408 
 158   0.0000       5.519855       150.2029 
 159   0.0000       5.587952       152.0559 
 160   0.0000       5.592237       152.1725 
 161   0.0000       5.627787       153.1399 
 162   0.0000       5.709971       155.3762 
 163   0.0000       6.101361       166.0265 
 164   0.0000       6.105084       166.1278 
 165   0.0000       6.124163       166.6470 
 166   0.0000       6.159030       167.5957 
 167   0.0000       6.558319       178.4609 
 168   0.0000       6.613298       179.9570 
 169   0.0000       6.625071       180.2774 
 170   0.0000       6.876983       187.1322 
 171   0.0000       6.890799       187.5082 
 172   0.0000       7.061150       192.1437 
 173   0.0000       7.259495       197.5409 
 174   0.0000       7.304649       198.7696 
 175   0.0000       7.365983       200.4386 
 176   0.0000       7.468957       203.2407 
 177   0.0000       7.522172       204.6887 
 178   0.0000       7.726619       210.2520 
 179   0.0000       7.838942       213.3085 
 180   0.0000       8.133186       221.3152 
 181   0.0000       8.500669       231.3150 
 182   0.0000      15.515516       422.1986 
 183   0.0000      17.633373       479.8285 

                    ********************************
                    * MULLIKEN POPULATION ANALYSIS *
                    ********************************

-----------------------
MULLIKEN ATOMIC CHARGES
-----------------------
   0 C :   -0.623716
   1 O :   -0.503797
   2 H :    0.323362
   3 H :    0.196491
   4 H :    0.303830
   5 H :    0.303830
Sum of atomic charges:    0.0000000

--------------------------------
MULLIKEN REDUCED ORBITAL CHARGES
--------------------------------
  0 C s       :     3.256418  s :     3.256418
      pz      :     1.180588  p :     3.121823
      px      :     1.242218
      py      :     0.699017
      dz2     :     0.027781  d :     0.225941
      dxz     :     0.030686
      dyz     :     0.077796
      dx2y2   :     0.041429
      dxy     :     0.048249
      f0      :     0.003174  f :     0.019534
      f+1     :     0.002185
      f-1     :     0.001673
      f+2     :     0.003488
      f-2     :     0.001913
      f+3     :     0.005659
      f-3     :     0.001442
  1 O s       :     3.871947  s :     3.871947
      pz      :     1.905754  p :     4.600233
      px      :     1.360306
      py      :     1.334173
      dz2     :     0.002615  d :     0.029156
      dxz     :     0.001012
      dyz     :     0.004041
      dx2y2   :     0.016681
      dxy     :     0.004807
      f0      :     0.000300  f :     0.002461
      f+1     :     0.000335
      f-1     :     0.000659
      f+2     :     0.000230
      f-2     :     0.000047
      f+3     :     0.000633
      f-3     :     0.000257
  2 H s       :     0.647144  s :     0.647144
      pz      :     0.002925  p :     0.029411
      px      :     0.023475
      py      :     0.003010
      dz2     :    -0.001130  d :     0.000083
      dxz     :     0.001861
      dyz     :     0.000289
      dx2y2   :    -0.000566
      dxy     :    -0.000370
  3 H s       :     0.682259  s :     0.682259
      pz      :     0.047634  p :     0.098035
      px      :     0.008249
      py      :     0.042152
      dz2     :     0.000730  d :     0.023215
      dxz     :     0.008740
      dyz     :     0.001227
      dx2y2   :     0.005076
      dxy     :     0.007443
  4 H s       :     0.661708  s :     0.661708
      pz      :     0.016203  p :     0.033466
      px      :     0.006678
      py      :     0.010585
      dz2     :     0.001299  d :     0.000997
      dxz     :     0.000382
      dyz     :    -0.000524
      dx2y2   :    -0.000314
      dxy     :     0.000153
  5 H s       :     0.661708  s :     0.661708
      pz      :     0.016203  p :     0.033466
      px      :     0.006678
      py      :     0.010585
      dz2     :     0.001299  d :     0.000997
      dxz     :     0.000382
      dyz     :    -0.000524
      dx2y2   :    -0.000314
      dxy     :     0.000153


                     *******************************
                     * LOEWDIN POPULATION ANALYSIS *
                     *******************************

----------------------
LOEWDIN ATOMIC CHARGES
----------------------
   0 C :    0.320112
   1 O :    0.770543
   2 H :   -0.201032
   3 H :   -0.509909
   4 H :   -0.189857
   5 H :   -0.189857

-------------------------------
LOEWDIN REDUCED ORBITAL CHARGES
-------------------------------
  0 C s       :     2.473887  s :     2.473887
      pz      :     0.792760  p :     2.191000
      px      :     0.798002
      py      :     0.600238
      dz2     :     0.096462  d :     0.696054
      dxz     :     0.059597
      dyz     :     0.204930
      dx2y2   :     0.170049
      dxy     :     0.165016
      f0      :     0.039128  f :     0.318947
      f+1     :     0.018728
      f-1     :     0.041953
      f+2     :     0.060512
      f-2     :     0.012872
      f+3     :     0.095436
      f-3     :     0.050317
  1 O s       :     3.013018  s :     3.013018
      pz      :     1.444767  p :     3.894975
      px      :     1.267990
      py      :     1.182218
      dz2     :     0.025168  d :     0.257462
      dxz     :     0.001442
      dyz     :     0.065937
      dx2y2   :     0.072551
      dxy     :     0.092363
      f0      :     0.007819  f :     0.064002
      f+1     :     0.003201
      f-1     :     0.005662
      f+2     :     0.012628
      f-2     :     0.000578
      f+3     :     0.023842
      f-3     :     0.010272
  2 H s       :     0.669260  s :     0.669260
      pz      :     0.089562  p :     0.304346
      px      :     0.151205
      py      :     0.063580
      dz2     :     0.016569  d :     0.227426
      dxz     :     0.087994
      dyz     :     0.007892
      dx2y2   :     0.064633
      dxy     :     0.050339
  3 H s       :     0.596934  s :     0.596934
      pz      :     0.157189  p :     0.541174
      px      :     0.249470
      py      :     0.134515
      dz2     :     0.033544  d :     0.371801
      dxz     :     0.111258
      dyz     :     0.015494
      dx2y2   :     0.118370
      dxy     :     0.093134
  4 H s       :     0.673354  s :     0.673354
      pz      :     0.133959  p :     0.299452
      px      :     0.102632
      py      :     0.062861
      dz2     :     0.077279  d :     0.217051
      dxz     :     0.048673
      dyz     :     0.034525
      dx2y2   :     0.041550
      dxy     :     0.015024
  5 H s       :     0.673354  s :     0.673354
      pz      :     0.133959  p :     0.299452
      px      :     0.102632
      py      :     0.062861
      dz2     :     0.077279  d :     0.217051
      dxz     :     0.048673
      dyz     :     0.034525
      dx2y2   :     0.041550
      dxy     :     0.015024


                      *****************************
                      * MAYER POPULATION ANALYSIS *
                      *****************************

  NA   - Mulliken gross atomic population
  ZA   - Total nuclear charge
  QA   - Mulliken gross atomic charge
  VA   - Mayer's total valence
  BVA  - Mayer's bonded valence
  FA   - Mayer's free valence

  ATOM       NA         ZA         QA         VA         BVA        FA
  0 C      6.6237     6.0000    -0.6237     3.5817     3.5817     0.0000
  1 O      8.5038     8.0000    -0.5038     1.8457     1.8457     0.0000
  2 H      0.6766     1.0000     0.3234     0.9593     0.9593    -0.0000
  3 H      0.8035     1.0000     0.1965     1.0345     1.0345     0.0000
  4 H      0.6962     1.0000     0.3038     0.9875     0.9875     0.0000
  5 H      0.6962     1.0000     0.3038     0.9875     0.9875     0.0000

  Mayer bond orders larger than 0.100000
B(  0-C ,  1-O ) :   0.8238 B(  0-C ,  2-H ) :   0.9074 B(  0-C ,  4-H ) :   0.9017 
B(  0-C ,  5-H ) :   0.9017 B(  1-O ,  3-H ) :   0.9812 

-------
TIMINGS
-------

Total SCF time: 0 days 0 hours 0 min 19 sec 

Total time                  ....      19.121 sec
Sum of individual times     ....      16.666 sec  ( 87.2%)

Fock matrix formation       ....      14.229 sec  ( 74.4%)
Diagonalization             ....       0.224 sec  (  1.2%)
Density matrix formation    ....       0.005 sec  (  0.0%)
Population analysis         ....       0.409 sec  (  2.1%)
Initial guess               ....       0.619 sec  (  3.2%)
Orbital Transformation      ....       0.000 sec  (  0.0%)
Orbital Orthonormalization  ....       0.000 sec  (  0.0%)
DIIS solution               ....       0.811 sec  (  4.2%)
SOSCF solution              ....       0.195 sec  (  1.0%)

Maximum memory used throughout the entire SCF-calculation: 230.1 MB


           ************************************************************
           *        Program running with 6 parallel MPI-processes     *
           *              working on a common directory               *
           ************************************************************


--------------------------------------------------------------------------------
                             ORCA-MATRIX DRIVEN CI
--------------------------------------------------------------------------------


Wavefunction type
-----------------
Correlation treatment                      ...      CCSD     
Single excitations                         ... ON
Orbital optimization                       ... OFF
Calculation of Z vector                    ... OFF
Calculation of Brueckner orbitals          ... OFF
Perturbative triple excitations            ... ON
Calculation of F12 correction              ... OFF
Frozen core treatment                      ... chemical core (4 el)
Reference Wavefunction                     ... RHF
  Internal Orbitals:     2 ...    8 (  7 MO's/ 14 electrons)
  Virtual  Orbitals:     9 ...  183 (175 MO's              )
Number of AO's                             ...    184
Number of electrons                        ...     18
Number of correlated electrons             ...     14

Algorithmic settings
--------------------
Integral transformation                    ... All integrals via the RI transformation
K(C) Formation                             ... RI-DLPNO
   PNO-Integral Storage                    ... ON DISK
   PNO occupation number cut-off           ... 1.000e-07
   Singles PNO occupation number cut-off   ... 3.000e-09
   PNO Mulliken prescreening cut-off       ... 1.000e-03
   Domain cut-off (Mulliken population)    ... 1.000e-03
   PNO Normalization                       ...    1
Maximum number of iterations               ...        50
Convergence tolerance (max. residuum)      ... 2.500e-05
Level shift for amplitude update           ... 2.000e-01
Maximum number of DIIS vectors             ...         7
DIIS turned on at iteration                ...         0
Damping before turning on DIIS             ...     0.500
Damping after turning on DIIS              ...     0.000
Pair specific amplitude update             ... OFF
Natural orbital iterations                 ... OFF
Perturbative natural orbital generation    ... OFF
Printlevel                                 ... 2

Singles Fock matrix elements calculated using PNOs.

Memory handling:
----------------
Maximum memory for working arrays          ...    512 MB
Data storage in matrix containers          ... UNCOMPRESSED
Data type for integral storage             ... DOUBLE
In-Core Storage of quantities:
   Amplitudes+Sigma Vector      ... NO
   J+K operators                ... NO
   DIIS vectors                 ... NO
   3-external integrals         ... NO
   4-external integrals         ... NO

Localization treatment:
-----------------------
Localization option                        ...    6
Localization threshhold                    ... -1.0e+00
Using relative localization threshhold     ... 1.0e-08
Neglect threshold for strong pairs         ... 1.000e-05 Eh
Prescreening threshold for very weak pairs ... 1.000e-07 Eh

Initializing the integral package          ... done
Localizing the valence orbitals
------------------------------------------------------------------------------
                           ORCA ORBITAL LOCALIZATION
------------------------------------------------------------------------------

Input orbitals are from                  ... ch3oh.gbw
Output orbitals are to                   ... ch3oh.loc
Max. number of iterations                ... 128
Localizations seeded randomly            ... off
Convergence tolerance                    ... 1.000e-06
Using relative localization threshhold   ... 1.000e-08
Treshold for strong local MOs            ... 9.500e-01
Treshold for bond MOs                    ... 8.500e-01
Operator                                 ... 0
Orbital range for localization           ... 2 to 8
Localization criterion                   ... FOSTER-BOYS (AUGMENTED HESSIAN)
Doing the dipole integrals     ... o.k.
Initial value of the localization sum :    14.626734
ITERATION   0 : L=   23.7533713749 DL=  9.13e+00 (AVERGE_DL)=    0.6592433565 
ITERATION   1 : L=   24.0412389151 DL=  2.88e-01 (AVERGE_DL)=    0.1170810749 
ITERATION   2 : L=   24.0463442321 DL=  5.11e-03 (AVERGE_DL)=    0.0155919958 
ITERATION   3 : L=   24.0467268250 DL=  3.83e-04 (AVERGE_DL)=    0.0042683377 
ITERATION   4 : L=   24.0467724554 DL=  4.56e-05 (AVERGE_DL)=    0.0014740678 
ITERATION   5 : L=   24.0467774291 DL=  4.97e-06 (AVERGE_DL)=    0.0004866651 
ITERATION   6 : L=   24.0467779229 DL=  4.94e-07 (AVERGE_DL)=    0.0001533575 
LOCALIZATION SUM CONVERGED

------------------------------------------------------
AUGMENTED HESSIAN OPTIMIZATION OF FOSTER-BOYS ORBITALS
------------------------------------------------------

Spin operator:           0
Orbital window:          2 to 8
Number of iterations:    128
Gradient tolerance:      1.000e-06
Number of pairs:         21
Davidson threshold:      2000
Diagonalization method:  LAPACK
Iter:    0   L: 24.0467779229   Grad. norm: 4.332772e-04
   *** Likely close to a maximum now. ***
       Augmented Hessian eigenvalues:  9.91e-08 -1.39e+00 -3.51e+00 -5.12e+00 ... 
Iter:    1   L: 24.0467779725   Grad. norm: 4.753463e-08
LOCALIZATION HAS CONVERGED.

Eigenvalues of the Hessian:
  0 -1.391e+00
  1 -3.513e+00
  2 -5.115e+00
  3 -5.569e+00
  4 -7.517e+00
  5 -1.024e+01
  6 -1.729e+01
  7 -2.096e+01
  8 -2.151e+01
  9 -2.425e+01
    ...


--------------------------------------------------------------------------------
                    LOCALIZED MOLECULAR ORBITAL COMPOSITIONS
--------------------------------------------------------------------------------

The Mulliken populations for each LMO on each atom are computed
The LMO`s will be ordered according to atom index and type
  (A) Strongly localized MO`s have populations of >=0.950 on one atom
  (B) Two center bond orbitals have populations of >=0.850 on two atoms
  (C) Other MO`s are considered to be `delocalized`

FOUND  -   2 strongly local MO`s
       -   5 two center bond MO`s
       -   0 significantly delocalized MO`s

Rather strongly localized orbitals:
MO   3:   1O  -   1.022932
MO   2:   1O  -   1.022932
Bond-like localized orbitals:
MO   8:   5H  -   0.317682  and   0C  -   0.665001
MO   7:   4H  -   0.317682  and   0C  -   0.665001
MO   6:   3H  -   0.407484  and   1O  -   0.579894
MO   5:   2H  -   0.312636  and   0C  -   0.682428
MO   4:   1O  -   0.653860  and   0C  -   0.330035
Localized MO's were stored in: ch3oh.loc

Localizing the core orbitals
------------------------------------------------------------------------------
                           ORCA ORBITAL LOCALIZATION
------------------------------------------------------------------------------

Input orbitals are from                  ... ch3oh.loc
Output orbitals are to                   ... ch3oh.loc
Max. number of iterations                ... 128
Localizations seeded randomly            ... off
Convergence tolerance                    ... 1.000e-06
Using relative localization threshhold   ... 1.000e-08
Treshold for strong local MOs            ... 9.500e-01
Treshold for bond MOs                    ... 8.500e-01
Operator                                 ... 0
Orbital range for localization           ... 0 to 1
Localization criterion                   ... FOSTER-BOYS (AUGMENTED HESSIAN)
Doing the dipole integrals     ... o.k.
Initial value of the localization sum :     3.632806
ITERATION   0 : L=    3.6328075917 DL=  1.56e-06 (AVERGE_DL)=    0.0012471305 
ITERATION   1 : L=    3.6328075917 DL=  0.00e+00 (AVERGE_DL)=    0.0000000000 
LOCALIZATION SUM CONVERGED

------------------------------------------------------
AUGMENTED HESSIAN OPTIMIZATION OF FOSTER-BOYS ORBITALS
------------------------------------------------------

Spin operator:           0
Orbital window:          0 to 1
Number of iterations:    128
Gradient tolerance:      1.000e-06
Number of pairs:         1
Davidson threshold:      2000
Diagonalization method:  LAPACK
Iter:    0   L: 3.6328075917   Grad. norm: 9.559674e-18
   *** Likely close to a maximum now. ***
       Augmented Hessian eigenvalues:  3.17e-36 -2.88e+01
Iter:    1   L: 3.6328075917   Grad. norm: 3.426304e-24
LOCALIZATION HAS CONVERGED.

Eigenvalues of the Hessian:
  0 -2.882e+01


--------------------------------------------------------------------------------
                    LOCALIZED MOLECULAR ORBITAL COMPOSITIONS
--------------------------------------------------------------------------------

The Mulliken populations for each LMO on each atom are computed
The LMO`s will be ordered according to atom index and type
  (A) Strongly localized MO`s have populations of >=0.950 on one atom
  (B) Two center bond orbitals have populations of >=0.850 on two atoms
  (C) Other MO`s are considered to be `delocalized`

FOUND  -   2 strongly local MO`s
       -   0 two center bond MO`s
       -   0 significantly delocalized MO`s

Rather strongly localized orbitals:
MO   1:   1O  -   0.999179
MO   0:   0C  -   0.999983
Localized MO's were stored in: ch3oh.loc

Warning: reference  - re-canonicalizations have been set to INT 1 VIRT 1
Warning: internal orbitals are localized - no re-canonicalization of internal orbitals
Warning: UsePNO is turned on - no re-canonicalization of internal and virtual orbitals

--------------------------
CLOSED-SHELL FOCK OPERATOR
--------------------------

Restoring SHARK [2] ... ok
Time needed for Fock operator              ...            2.328 sec
Reference energy                           ...   -115.091874371

--------------
DLPNO SETTINGS (2015 fully linear scaling implementation)
--------------

TCutMKN:           1.000e-03
TCutPAO:           1.000e-03
TCutPNO:           1.000e-07
TCutPNOSingles:    3.000e-09
TCutEN:            9.700e-01
TCutPAOExt:        1.000e-01
TCutPairs:         1.000e-05
TCutPre:           1.000e-07
TCutOSV:           1.000e-06
TCutDOij:          1.000e-05
TCutDO:            5.000e-03
TCutC:             1.000e-04
TCutCPAO:          1.000e-03
TCutCMO:           1.000e-03
TScaleDOMP2PreScr: 2.000e+00
TScaleMKNMP2PreScr:1.000e+01
TScalePNOMP2PreScr:1.000e+00
PAO overlap thresh 1.000e-08
Using PNOs for Singles Fock computation
Use new domains
Use fully linear algorithm
TCutTNO:           1.000e-09
TCutMP2Pairs:      1.000e-06
TCutDOStrong:      2.000e-03
TCutMKNStrong:     1.000e-02
TCutMKNWeak:       1.000e-01
TCutDOWeak:        4.000e-03
NTCutTNO:          1

--------------------------
Mulliken population of the LMOs            ... ok
Performing proximity check                 ... No problems found
Calculating differential overlap integrals ... ok

--------------------------
ELECTRON PAIR PRESCREENING
--------------------------

Dipole-based pair screening          .... used

   TCutDOij = 1.000000e-05
   TCutPre  = 1.000000e-07
   .... Finished loop over pairs
Total time spent in the prescreening                  ...     0.068 sec
sum of pair energies estimated for screened out pairs ...       0.000000000000 Eh
Thresholds for map construction and integral transformation for crude MP2:
   TCutMKN                    ...     1.0e-02
   TCutDO                     ...     1.0e-02
   TCutPairs                  ...     1.0e-05
   TCutPNO_CrudeMP2           ...     1.0e-07
   TCutPNOSingles_CrudeMP2    ...     3.0e-09
--------------------------------
LOCAL RI TRANSFORMATION (IAVPAO)
--------------------------------

Orbital window:       2 to 8
Number of PAOs:     184
Basis functions:    184 (64 shells)
Aux. functions:     396 (112 shells)
Use SHARK:           on

Processing maps (0.0 sec)
Average map sizes:
   Aux shells -> MOs               7.0
   Aux shells -> PAOs            184.0
   MOs        -> AO shells        64.0
   PAOs       -> AO shells        64.0

Calculating integrals (0.4 sec, 3.896 MB)
Sorting integrals (0.2 sec, 3.891 MB)
Total time for the integral transformation: 0.7 sec
--------------------------------
INITIAL GUESS AND PNO GENERATION
--------------------------------

PNO truncation parameters                   .... 
    PAOOverlapThresh   =        1.000e-08

    TCutPairs          =        1.000e-05
    TCutPNO            =        1.000e-07
    TCutPNOSingles     =        3.000e-09
    TCutMP2Pairs       =        1.000e-06
    TCutMKN            =        1.000e-02
    TCutDO             =        1.000e-02

Pair selection                          .... not used
Type of local MP2 treatment                 .... semi-local MP2
Strategy for PNO selection                  .... occupation number selection
Pair density normalization                  .... MP2 norm
Spin component scaling                      .... not used

   .... Finished loop over pairs
Making pair pair interaction lists          ... done

                       ===========================
                         28 OF   28 PAIRS ARE KEPT CCSD PAIRS
                          0 OF   28 PAIRS ARE KEPT MP2 PAIRS FOR (T)
                          0 OF   28 PAIRS ARE SKIPPED
                       ===========================

Total time spent in the initial guess                 ...     0.466 sec
SL-MP2 correlation energy (all non-screened pairs)    ...      -0.424589112188 Eh

Initial PNO correlation energy                        ...      -0.424376927460 Eh
sum of pair energies prescreened and skipped MP2 pairs...       0.000000000000 Eh
sum of pair energies of crude MP2 skipped pairs only  ...       0.000000000000 Eh
sum of MP2 pair energies for pairs that were not kept ...       0.000000000000 Eh
sum of PNO error estimates for the kept pairs         ...      -0.000212184728 Eh
                                                          --------------------
sum of all corrections                                         -0.000212184728
Initial total correlation energy                               -0.424589112188
Thresholds for map construction and integral transformation for fine MP2 and CCSD(T) calculation:
   TCutMKN   ...     1.0e-03
   TCutDO    ...     5.0e-03
   TCutPairs ...     1.0e-05
   TCutCMO   ...     1.0e-03
   TCutCPAO  ...     1.0e-03

Thresholds for map construction and integral transformation for strong Triples:
   TCutMKN   ...     1.0e-02
   TCutDO    ...     1.0e-02
   TCutCMO   ...     1.0e-03
   TCutCPAO  ...     1.0e-03

Thresholds for map construction and integral transformation for weak Triples:
   TCutMKN   ...     1.0e-01
   TCutDO    ...     2.0e-02
   TCutCMO   ...     1.0e-03
   TCutCPAO  ...     1.0e-03

--------------------------------
LOCAL RI TRANSFORMATION (IAVPAO)
--------------------------------

Orbital window:       2 to 8
Number of PAOs:     184
Basis functions:    184 (64 shells)
Aux. functions:     396 (112 shells)
Use SHARK:           on

Processing maps (0.0 sec)
Average map sizes:
   Aux shells -> MOs               7.0
   Aux shells -> PAOs            184.0
   MOs        -> AO shells        64.0
   PAOs       -> AO shells        64.0

Calculating integrals (0.3 sec, 3.896 MB)
Sorting integrals (0.1 sec, 3.891 MB)
Total time for the integral transformation: 0.7 sec
--------------------------------
INITIAL GUESS AND PNO GENERATION
--------------------------------

PNO truncation parameters                   .... 
    ScaleTCutPNO       =        1.000e-02
    PAOOverlapThresh   =        1.000e-08

    TCutPairs          =        1.000e-05
    TCutPNO            =        1.000e-07
    TCutPNOSingles     =        3.000e-09
    TCutMP2Pairs       =        1.000e-06
    TCutMKN            =        1.000e-03
    TCutDO             =        5.000e-03

Pair selection                          .... not used
Type of local MP2 treatment                 .... full local PMP2
Strategy for PNO selection                  .... occupation number selection
Pair density normalization                  .... MP2 norm
Spin component scaling                      .... not used

PASS-1: Formation of initial guess LMP2 amplitudes
Initial amplitudes guess done. Entering LMP2 iteration loop:
   Max. no of iterations          ...  50
   Energy convergence tolerance   ...    1.0e-07
   Residual convergence tolerance ...    5.0e-07
   Fock matrix cutoff             ...    1.0e-05 Eh
   DIIS convergence acceleration parameters:
        Max # vectors in DIIS     ... 7
        Start iteration of DIIS   ... 0
        Levelshift                ... 2.000e-01
        Damping factor 1          ... 5.000e-01
        Damping factor 2          ... 1.000e+00
   L-MP2 PNO cut-off              ...   1.0e-09
   L-MP2 PNO cut-off (core)       ...   1.0e-11
                           *** Turning on DIIS ***
LMP2-Iter=   0:  ELMP2= -0.432245892762  DE=   7.6e-03 RMAX=   4.4e-03
LMP2-Iter=   1:  ELMP2= -0.436327073038  DE=   4.1e-03 RMAX=   2.1e-03
LMP2-Iter=   2:  ELMP2= -0.436950410104  DE=   6.2e-04 RMAX=   4.0e-04
LMP2-Iter=   3:  ELMP2= -0.437025439305  DE=   7.5e-05 RMAX=   1.6e-04
LMP2-Iter=   4:  ELMP2= -0.437030253634  DE=   4.8e-06 RMAX=   1.8e-05
LMP2-Iter=   5:  ELMP2= -0.437029946256  DE=   3.1e-07 RMAX=   6.6e-06
LMP2-Iter=   6:  ELMP2= -0.437029885799  DE=   6.0e-08 RMAX=   6.9e-07
LMP2-Iter=   7:  ELMP2= -0.437029882815  DE=   3.0e-09 RMAX=   1.7e-07
LMP2-Iter=   8:  ELMP2= -0.437029887489  DE=   4.7e-09 RMAX=   2.1e-08 => CONVERGED
PASS-2: Formation of Pair natural orbitals
   .... Finished loop over pairs

 PNO Occupation Number Statistics: 
  | Av. % of trace(Dij) retained        ...  99.944646406381
  | sigma^2 in % of trace(Dij) retained ...   4.06e-03
  | Av. % of trace(Di) retained         ...  99.999708619992
  | sigma^2 in % of trace(Di) retained  ...   5.05e-09
 Distributions of % trace(Dij) recovered:
  |       >= 99.9  ...    19 ( 67.9 % of all pairs)
  |   [99.0, 99.9) ...     9 ( 32.1 % of all pairs)
 Distributions of % trace(Di) recovered :
  |       >= 99.9  ...     7 (100.0 % of all I-pairs )

Making pair pair interaction lists          ... done

                       ===========================
                         28 OF   28 PAIRS ARE KEPT
                       ===========================

Total time spent in the initial guess                 ...    18.118 sec
L-MP2 correlation energy (all non-screened pairs)     ...      -0.437029887489 Eh
L-MP2 PNO error correction                            ...      -0.000002039769 Eh
                                                          --------------------
Initial total L-MP2 energy (non-screened pairs)       ...      -0.437031927258 Eh

Initial PNO correlation energy                        ...      -0.436831976470 Eh
sum of pair energies estimated for screened out pairs ...       0.000000000000 Eh
sum of MP2 pair energies for pairs that were not kept ...       0.000000000000 Eh
sum of PNO error estimates for the kept pairs         ...      -0.000199950788 Eh
                                                          --------------------
sum of all corrections                                         -0.000199950788
Initial total correlation energy                               -0.437031927258
Thresholds for map construction and integral transformation for fine MP2 and CCSD(T) calculation:
   TCutMKN   ...     1.0e-03
   TCutDO    ...     5.0e-03
   TCutPairs ...     1.0e-05
   TCutCMO   ...     1.0e-03
   TCutCPAO  ...     1.0e-03

Time for aux screen maps:            0.000
Time for maps after fine MP2:            0.002

PROBLEM (ORCA/DLPNO): not enough memory for MDCI Iterations
        MemNeeded   455.6 MB > MemAvailable   383.2 MB
        Will have to batch evaluation of 4-external contributions to sigma vector

-----------------------------
LOCAL RI TRANSFORMATION (IJV)
-----------------------------

Orbital window:       2 to 8
Basis functions:    184 (64 shells)
Aux. functions:     396 (112 shells)
Use SHARK:           on

Processing maps (0.0 sec)
Average map sizes:
   Aux shells -> MOs(i)            7.0
   Aux shells -> MOs(j)            7.0
   MOs        -> AO shells        64.0

Calculating integrals (0.3 sec, 0.153 MB)
Sorting integrals (0.1 sec, 0.148 MB)
Total time for the integral transformation: 0.6 sec
--------------------------------
LOCAL RI TRANSFORMATION (VABPAO)
--------------------------------

Number of PAOs:     184
Basis functions:    184 (64 shells)
Aux. functions:     396 (112 shells)
Use SHARK:           on

Processing maps (0.0 sec)
Average map sizes:
   Aux shells -> PAOs            184.0
   PAOs       -> AO shells        64.0

Calculating integrals (0.7 sec, 102.292 MB)
Finished


-------------------------------------
Pair Pair Term precalculation with     
RI-(ij|mn) and (im|jn) transformation  
ON THE FLY                             
-------------------------------------

   IBatch   1 (of   3)              ... done (    3.437 sec)
   IBatch   2 (of   3)              ... done (    2.928 sec)
   IBatch   3 (of   3)              ... done (    1.939 sec)
Total EXT                           ...           8.305 sec

---------------------
RI-PNO TRANSFORMATION
---------------------

Total Number of PNOs                   ...  1755
Average number of PNOs per pair        ...    62
Maximal number of PNOs per pair        ...    73
   #pairs with  1 -  5 PNOs   :    0
   #pairs with  6 - 10 PNOs   :    0
   #pairs with 11 - 15 PNOs   :    0
   #pairs with 16 - 20 PNOs   :    0
   #pairs with 21 - 25 PNOs   :    0
   #pairs with 26 - 30 PNOs   :    0
   #pairs with 31 - 35 PNOs   :    0
   #pairs with 36 - 40 PNOs   :    0
   #pairs with 41 - 45 PNOs   :    0
   #pairs with 46 - 50 PNOs   :    0
   #pairs with 51 - 55 PNOs   :    2
   #pairs with 56 - 60 PNOs   :   11
   #pairs with 61 - 65 PNOs   :    4
   #pairs with 66 - 70 PNOs   :    8
   #pairs with 71 - 75 PNOs   :    3

Generation of (ij|ab)[P] integrals            ... on
Generation of (ia|bc)[P],(ja|bc)[P] integrals ... on
Storage of 3 and 4 external integrals         ... on
Generation of ALL (ka|bc)[P] integrals        ... on
Keep RI integrals in memory                   ... off

Ibatch:  1 (of  1)
Starting 2-4 index PNO integral generation ... done

Timings:
Total PNO integral transformation time     ...          5.466 sec
Size of the 3-external file                ...        55 MB
Size of the 4-external file                ...       453 MB
Size of the IKJL file                      ...         0 MB
Size of the all 3-external file            ...       193 MB
Size of the 1-external file                ...         0 MB

Making pair/pair overlap matrices          ... done (    0.372 sec)
Size of the pair overlap file              ... 22 MB
Redoing the guess amplitudes               ... done (    0.118 sec)

-------------------------
FINAL STARTUP INFORMATION
-------------------------

E(0)                                       ...   -115.091874371
E(L-MP2)                                   ...     -0.437031927
E(L-MP2) including corrections             ...     -0.437031927
Initial E(tot)                             ...   -115.528906299
<T|T>                                      ...      0.105210150
Number of pairs included                   ... 28
Total number of pairs                      ... 28

------------------------------------------------
                  RHF COUPLED CLUSTER ITERATIONS
------------------------------------------------

Number of PNO amplitudes to be optimized   ...       111225
Number of non-PNO amplitudes               ...       857500
Untruncated number of regular amplitudes   ...       857500

Iter       E(tot)           E(Corr)          Delta-E          Residual     Time
  0   -115.516443258     -0.424368936      0.012662991      0.015036631   25.96
                           *** Turning on DIIS ***
  1   -115.532879503     -0.440805181     -0.016436245      0.007236333   26.28
  2   -115.543971310     -0.451896988     -0.011091807      0.002097824   25.83
  3   -115.546069913     -0.453995591     -0.002098603      0.001076592   26.83
  4   -115.546568233     -0.454493911     -0.000498319      0.000337296   27.66
  5   -115.546672909     -0.454598587     -0.000104676      0.000112129   26.73
  6   -115.546693973     -0.454619651     -0.000021064      0.000048928   26.19
  7   -115.546695796     -0.454621474     -0.000001823      0.000020059   26.85
               --- The Coupled-Cluster iterations have converged ---

----------------------
COUPLED CLUSTER ENERGY
----------------------

E(0)                                       ...   -115.091874371
E(CORR)(strong-pairs)                      ...     -0.454621474
E(CORR)(weak-pairs)                        ...     -0.000199951
E(CORR)(corrected)                         ...     -0.454821425
E(TOT)                                     ...   -115.546695796
Singles Norm <S|S>**1/2                    ...      0.035866261  
T1 diagnostic                              ...      0.009585661  

------------------
LARGEST AMPLITUDES
------------------
   6->  9   6->  9       0.035500
   5-> 17   5-> 17       0.035390
   5->  9   5->  9       0.033442
   8->  9   8->  9       0.033256
   7->  9   7->  9       0.033256
   4->  9   4->  9       0.031113
   5->  9   5-> 17       0.028338
   5-> 17   5->  9       0.028338
   6->  9   6-> 17       0.027444
   6-> 17   6->  9       0.027444
   8-> 16   8-> 16       0.026732
   7-> 16   7-> 16       0.026732
   6-> 17   6-> 17       0.025389
   8->  9   8-> 16       0.023019
   8-> 16   8->  9       0.023019
   7-> 16   7->  9       0.023019


-------------------------------------------
DLPNO BASED TRIPLES CORRECTION
-------------------------------------------

Singles multiplier          ...  1.000000
TCutTNO                     ... 1.000e-09
TCutMP2Pairs                ... 1.000e-06
TCutDOStrong                ... 1.000e-02
TCutMKNStrong               ... 1.000e-02
TCutDOWeak                  ... 2.000e-02
TCutMKNWeak                 ... 1.000e-01

Fragment selection                          .... not used
Fock matrix occ-virt block is zero --> Setting DT_in_Triples to false.
Number of Triples that are to be computed   ...        77

 . . . . . . . . .
10% done  
20% done  
30% done  
40% done  
50% done  
60% done  
70% done  
80% done  
90% done               (      9.556 sec)
Triples timings:
Total time for T0               ...    10.231 sec
Total time for Iterative (T)    ...     0.000 sec
Total time of overall (T)       ...    12.361 sec

Triples List generation         ...     0.000 sec
TNO generation                  ...     0.289 sec
Pair density generation         ...     0.001 sec
Look up tables                  ...     0.000 sec
Generating 3-index integrals    ...     4.268 sec
  Make 4-ind.int. from 3-ind.int...     2.237 sec
  Projecting amplitudes (D + S) ...     0.195 sec
  Downprojecting integrals      ...     0.000 sec
  Energy contr. (sum over a,b,c)...     0.549 sec
Fitting ET(->0)                 ...     0.000 sec

Everything after 3-index        ...     5.288 sec

Timing details:
 TNO integrals                  ...     6.313 sec
   Reading 3-index integrals    ...     0.721 sec
   Sorting integrals            ...     1.198 sec
       Sorting integrals 1      ...     0.000 sec
       Sorting integrals 2      ...     0.276 sec
       Sorting integrals 3      ...     0.052 sec
       Sorting integrals 4      ...     0.001 sec
       Sorting integrals 5      ...     0.004 sec
       Sorting integrals 6      ...     0.865 sec
   Calculating local VM**-1/2   ...     0.033 sec
   Orthogonal. integrals        ...     0.084 sec
   Multipl. 3-index integrals   ...     4.277 sec
   All concerning IRIab (w/TNO) ...     1.168 sec

 Calculate W0/W1                ...     2.281 sec
 W 3-ext contribution           ...     1.530 sec
 W 3-int contribution           ...     0.183 sec
 Sorting W                      ...     0.521 sec

 V exchange contribution        ...     0.165 sec

 Timings for Triples without generation
     of 3-index integrals       ...     5.288 sec
       0 weak pairs             ...     5.288 sec
       1 weak pair              ...     0.000 sec
       2 weak pairs             ...     0.000 sec
       3 weak pairs             ...     0.000 sec
  Extra time for extrapolation  ...     0.000 sec

Number of Triples   (0, 1, 2, 3 weak pairs; overall):     77       0       0       0  (    77)
Number of Atoms     (0, 1, 2, 3 weak pairs; overall):    6.0     0.0     0.0     0.0  (     6)
Number of PAOs      (0, 1, 2, 3 weak pairs; overall):  184.0     0.0     0.0     0.0  (   184)
Number of AuxFcns   (0, 1, 2, 3 weak pairs; overall):  343.7     0.0     0.0     0.0  (   396)
Number of TNOs      (0, 1, 2, 3 weak pairs         ):  115.1     0.0     0.0     0.0
Aver. Number of NTNO, Atoms, PAOs, AuxFcns / Triples:     77   115.1     6.0   184.0   343.7

Triples Correction (T)                     ...     -0.015292265
Final correlation energy                   ...     -0.470113690
E(CCSD)                                    ...   -115.546695796
E(CCSD(T))                                 ...   -115.561988061



--------------------------------------------------------------------------------
                                    TIMINGS
--------------------------------------------------------------------------------


Total execution time                   ...      268.578 sec

Localization of occupied MO's          ...        1.140 sec (  0.4%)
Fock Matrix Formation                  ...        2.328 sec (  0.9%)
Global overlap, Fock, MKN matrices     ...        0.948 sec (  0.4%)
Differential overlap integrals         ...        0.348 sec (  0.1%)
Organizing maps                        ...        0.006 sec (  0.0%)
RI 3-index integral generations        ...        2.707 sec (  1.0%)
RI-PNO integral transformation         ...       15.223 sec (  5.7%)
Initial Guess                          ...       18.714 sec (  7.0%)
DIIS Solver                            ...        6.803 sec (  2.5%)
State Vector Update                    ...        0.004 sec (  0.0%)
Sigma-vector construction              ...      209.777 sec ( 78.1%)
  <D|H|D>(0-ext)                       ...        5.680 sec (  2.7% of sigma)
  <D|H|D>(2-ext Fock)                  ...        0.005 sec (  0.0% of sigma)
  <D|H|D>(2-ext)                       ...        6.683 sec (  3.2% of sigma)
  <D|H|D>(4-ext)                       ...       36.343 sec ( 17.3% of sigma)
  <D|H|D>(4-ext-corr)                  ...       43.361 sec ( 20.7% of sigma)
  CCSD doubles correction              ...        2.302 sec (  1.1% of sigma)
  <S|H|S>                              ...       37.747 sec ( 18.0% of sigma)
  <S|H|D>(1-ext)                       ...        0.044 sec (  0.0% of sigma)
  <D|H|S>(1-ext)                       ...        0.001 sec (  0.0% of sigma)
  <S|H|D>(3-ext)                       ...        0.402 sec (  0.2% of sigma)
  Fock-dressing                        ...       28.417 sec ( 13.5% of sigma)
  Singles amplitudes                   ...        5.559 sec (  2.7% of sigma)
  (ik|jl)-dressing                     ...       12.830 sec (  6.1% of sigma)
  (ij|ab),(ia|jb)-dressing             ...       25.920 sec ( 12.4% of sigma)
  Pair energies                        ...        0.186 sec (  0.1% of sigma)
Total Time for computing (T)           ...       12.377 sec (  4.6% of ALL)


Maximum memory used throughout the entire MDCI-calculation: 512.1 MB

-------------------------   --------------------
FINAL SINGLE POINT ENERGY      -115.561988061195
-------------------------   --------------------


                            ***************************************
                            *     ORCA property calculations      *
                            ***************************************


  WARNING: The energy has been calculated at the MDCI level but the densities
           used in the property calculations are still SCF densities
           MDCI response densities have not been calculated 
           use %mdci Density linearized end
           or  %mdci Density unrelaxed end
           or  %mdci Density orbopt end

                                    ---------------------
                                    Active property flags
                                    ---------------------
   (+) Dipole Moment


------------------------------------------------------------------------------
                       ORCA ELECTRIC PROPERTIES CALCULATION
------------------------------------------------------------------------------

Dipole Moment Calculation                       ... on
Quadrupole Moment Calculation                   ... off
Polarizability Calculation                      ... off
GBWName                                         ... ch3oh.gbw
Electron density                                ... ch3oh.scfp
The origin for moment calculation is the CENTER OF MASS  = (-0.033502, -0.123494  0.000000)

-------------
DIPOLE MOMENT
-------------
                                X             Y             Z
Electronic contribution:     -0.11245      -1.76463       0.00000
Nuclear contribution   :      0.67962       2.19133      -0.00000
                        -----------------------------------------
Total Dipole Moment    :      0.56716       0.42670      -0.00000
                        -----------------------------------------
Magnitude (a.u.)       :      0.70975
Magnitude (Debye)      :      1.80404



--------------------
Rotational spectrum 
--------------------
 
Rotational constants in cm-1:     4.290718     0.825768     0.796892 
Rotational constants in MHz : 128632.490843 24755.898399 23890.216493 

 Dipole components along the rotational axes: 
x,y,z [a.u.] :     0.393298     0.590816    -0.000000 
x,y,z [Debye]:     0.999685     1.501734    -0.000000 

 

Timings for individual modules:

Sum of individual times         ...      291.879 sec (=   4.865 min)
GTO integral calculation        ...        2.320 sec (=   0.039 min)   0.8 %
SCF iterations                  ...       19.836 sec (=   0.331 min)   6.8 %
MDCI module                     ...      269.723 sec (=   4.495 min)  92.4 %
                             ****ORCA TERMINATED NORMALLY****
TOTAL RUN TIME: 0 days 0 hours 4 minutes 54 seconds 164 msec
