 Entering Gaussian System, Link 0=g16
 Input=NH3_def30.com
 Output=NH3_def30.log
 Initial command:
 /home/spantaleone/g16/l1.exe "/scratch/cnt0027/pag0797/spantaleone/tino/NH3_def/30/NH3_def/Gau-53503.inp" -scrdir="/scratch/cnt0027/pag0797/spantaleone/tino/NH3_def/30/NH3_def/"
 Entering Link 1 = /home/spantaleone/g16/l1.exe PID=     53504.
  
 Copyright (c) 1988-2017, Gaussian, Inc.  All Rights Reserved.
  
 This is part of the Gaussian(R) 16 program.  It is based on
 the Gaussian(R) 09 system (copyright 2009, Gaussian, Inc.),
 the Gaussian(R) 03 system (copyright 2003, Gaussian, Inc.),
 the Gaussian(R) 98 system (copyright 1998, Gaussian, Inc.),
 the Gaussian(R) 94 system (copyright 1995, Gaussian, Inc.),
 the Gaussian 92(TM) system (copyright 1992, Gaussian, Inc.),
 the Gaussian 90(TM) system (copyright 1990, Gaussian, Inc.),
 the Gaussian 88(TM) system (copyright 1988, Gaussian, Inc.),
 the Gaussian 86(TM) system (copyright 1986, Carnegie Mellon
 University), and the Gaussian 82(TM) system (copyright 1983,
 Carnegie Mellon University). Gaussian is a federally registered
 trademark of Gaussian, Inc.
  
 This software contains proprietary and confidential information,
 including trade secrets, belonging to Gaussian, Inc.
  
 This software is provided under written license and may be
 used, copied, transmitted, or stored only in accord with that
 written license.
  
 The following legend is applicable only to US Government
 contracts under FAR:
  
                    RESTRICTED RIGHTS LEGEND
  
 Use, reproduction and disclosure by the US Government is
 subject to restrictions as set forth in subparagraphs (a)
 and (c) of the Commercial Computer Software - Restricted
 Rights clause in FAR 52.227-19.
  
 Gaussian, Inc.
 340 Quinnipiac St., Bldg. 40, Wallingford CT 06492
  
  
 ---------------------------------------------------------------
 Warning -- This program may not be used in any manner that
 competes with the business of Gaussian, Inc. or will provide
 assistance to any competitor of Gaussian, Inc.  The licensee
 of this program is prohibited from giving any competitor of
 Gaussian, Inc. access to this program.  By using this program,
 the user acknowledges that Gaussian, Inc. is engaged in the
 business of creating and licensing software in the field of
 computational chemistry and represents and warrants to the
 licensee that it is not a competitor of Gaussian, Inc. and that
 it will not use this program in any manner prohibited above.
 ---------------------------------------------------------------
  

 Cite this work as:
 Gaussian 16, Revision B.01,
 M. J. Frisch, G. W. Trucks, H. B. Schlegel, G. E. Scuseria, 
 M. A. Robb, J. R. Cheeseman, G. Scalmani, V. Barone, 
 G. A. Petersson, H. Nakatsuji, X. Li, M. Caricato, A. V. Marenich, 
 J. Bloino, B. G. Janesko, R. Gomperts, B. Mennucci, H. P. Hratchian, 
 J. V. Ortiz, A. F. Izmaylov, J. L. Sonnenberg, D. Williams-Young, 
 F. Ding, F. Lipparini, F. Egidi, J. Goings, B. Peng, A. Petrone, 
 T. Henderson, D. Ranasinghe, V. G. Zakrzewski, J. Gao, N. Rega, 
 G. Zheng, W. Liang, M. Hada, M. Ehara, K. Toyota, R. Fukuda, 
 J. Hasegawa, M. Ishida, T. Nakajima, Y. Honda, O. Kitao, H. Nakai, 
 T. Vreven, K. Throssell, J. A. Montgomery, Jr., J. E. Peralta, 
 F. Ogliaro, M. J. Bearpark, J. J. Heyd, E. N. Brothers, K. N. Kudin, 
 V. N. Staroverov, T. A. Keith, R. Kobayashi, J. Normand, 
 K. Raghavachari, A. P. Rendell, J. C. Burant, S. S. Iyengar, 
 J. Tomasi, M. Cossi, J. M. Millam, M. Klene, C. Adamo, R. Cammi, 
 J. W. Ochterski, R. L. Martin, K. Morokuma, O. Farkas, 
 J. B. Foresman, and D. J. Fox, Gaussian, Inc., Wallingford CT, 2016.
 
 ******************************************
 Gaussian 16:  ES64L-G16RevB.01 20-Dec-2017
                 8-Feb-2021 
 ******************************************
 %nosave
 %nproc=4
 Will use up to    4 processors via shared memory.
 %mem=1gb
 %chk=input
 --------------------
 #P B97D3/aug-cc-pvtz
 --------------------
 1/38=1,172=1/1;
 2/12=2,17=6,18=5,40=1/2;
 3/5=16,6=1,7=10,11=2,25=1,30=1,74=-59/1,2,3;
 4//1;
 5/5=2,38=5/2;
 6/7=2,8=2,9=2,10=2,28=1/1;
 99/5=1,9=1/99;
 Leave Link    1 at Mon Feb  8 14:50:59 2021, MaxMem=   134217728 cpu:               0.2 elap:               0.1
 (Enter /home/spantaleone/g16/l101.exe)
 -----
 Title
 -----
 Symbolic Z-matrix:
 Charge =  0 Multiplicity = 1
 N                     7.79235  -8.58635   0.1187 
 H                     8.76759  -8.31967   0.01805 
 H                     7.77306  -9.39426   0.73395 
 H                     7.32207  -7.82642   0.60778 
 
 ITRead=  0  0  0  0
 MicOpt= -1 -1 -1 -1
 NAtoms=      4 NQM=        4 NQMF=       0 NMMI=      0 NMMIF=      0
                NMic=       0 NMicF=      0.
                    Isotopes and Nuclear Properties:
 (Nuclear quadrupole moments (NQMom) in fm**2, nuclear magnetic moments (NMagM)
  in nuclear magnetons)

  Atom         1           2           3           4
 IAtWgt=          14           1           1           1
 AtmWgt=  14.0030740   1.0078250   1.0078250   1.0078250
 NucSpn=           2           1           1           1
 AtZEff=  -0.0000000  -0.0000000  -0.0000000  -0.0000000
 NQMom=    2.0440000   0.0000000   0.0000000   0.0000000
 NMagM=    0.4037610   2.7928460   2.7928460   2.7928460
 AtZNuc=   7.0000000   1.0000000   1.0000000   1.0000000
 Leave Link  101 at Mon Feb  8 14:50:59 2021, MaxMem=   134217728 cpu:               0.8 elap:               0.2
 (Enter /home/spantaleone/g16/l202.exe)
                          Input orientation:                          
 ---------------------------------------------------------------------
 Center     Atomic      Atomic             Coordinates (Angstroms)
 Number     Number       Type             X           Y           Z
 ---------------------------------------------------------------------
      1          7           0        7.792350   -8.586354    0.118695
      2          1           0        8.767593   -8.319668    0.018049
      3          1           0        7.773061   -9.394263    0.733946
      4          1           0        7.322073   -7.826418    0.607778
 ---------------------------------------------------------------------
                    Distance matrix (angstroms):
                    1          2          3          4
     1  N    0.000000
     2  H    1.016046   0.000000
     3  H    1.015688   1.629833   0.000000
     4  H    1.018757   1.637255   1.636290   0.000000
 Stoichiometry    H3N
 Framework group  C1[X(H3N)]
 Deg. of freedom     6
 Full point group                 C1      NOp   1
 Largest Abelian subgroup         C1      NOp   1
 Largest concise Abelian subgroup C1      NOp   1
                         Standard orientation:                         
 ---------------------------------------------------------------------
 Center     Atomic      Atomic             Coordinates (Angstroms)
 Number     Number       Type             X           Y           Z
 ---------------------------------------------------------------------
      1          7           0        0.000226   -0.000052   -0.113627
      2          1           0       -0.521998   -0.785094    0.264979
      3          1           0       -0.423694    0.841772    0.264852
      4          1           0        0.944112   -0.056310    0.265556
 ---------------------------------------------------------------------
 Rotational constants (GHZ):         298.1180137         295.4442158         187.7075361
 Leave Link  202 at Mon Feb  8 14:50:59 2021, MaxMem=   134217728 cpu:               0.1 elap:               0.0
 (Enter /home/spantaleone/g16/l301.exe)
 Standard basis: Aug-CC-pVTZ (5D, 7F)
 Ernie: Thresh=  0.10000D-02 Tol=  0.10000D-05 Strict=F.
 Ernie:  3 primitive shells out of 63 were deleted.
 There are   130 symmetry adapted cartesian basis functions of A   symmetry.
 There are   115 symmetry adapted basis functions of A   symmetry.
   115 basis functions,   153 primitive gaussians,   130 cartesian basis functions
     5 alpha electrons        5 beta electrons
       nuclear repulsion energy        11.9000972139 Hartrees.
 IExCor= 3630 DFT=T Ex+Corr=B97D3 ExCW=0 ScaHFX=  0.000000
 ScaDFX=  1.000000  1.000000  1.000000  1.000000 ScalE2=  1.000000  1.000000
 IRadAn=      5 IRanWt=     -1 IRanGd=            0 ICorTp=0 IEmpDi=141
 NAtoms=    4 NActive=    4 NUniq=    4 SFac= 1.00D+00 NAtFMM=   60 NAOKFM=F Big=F
 Integral buffers will be    131072 words long.
 Raffenetti 2 integral format.
 Two-electron integral symmetry is turned on.
 R6Disp:  Grimme-D3(BJ) Dispersion energy=       -0.0026833662 Hartrees.
 Nuclear repulsion after empirical dispersion term =       11.8974138477 Hartrees.
 Leave Link  301 at Mon Feb  8 14:50:59 2021, MaxMem=   134217728 cpu:               0.3 elap:               0.1
 (Enter /home/spantaleone/g16/l302.exe)
 NPDir=0 NMtPBC=     1 NCelOv=     1 NCel=       1 NClECP=     1 NCelD=      1
         NCelK=      1 NCelE2=     1 NClLst=     1 CellRange=     0.0.
 One-electron integrals computed using PRISM.
 One-electron integral symmetry used in STVInt
 NBasis=   115 RedAO= T EigKep=  2.73D-04  NBF=   115
 NBsUse=   115 1.00D-06 EigRej= -1.00D+00 NBFU=   115
 Precomputing XC quadrature grid using
 IXCGrd= 4 IRadAn=           5 IRanWt=          -1 IRanGd=           0 AccXCQ= 0.00D+00.
 Generated NRdTot=       0 NPtTot=           0 NUsed=           0 NTot=          32
 NSgBfM=   130   130   130   130   130 MxSgAt=     4 MxSgA2=     4.
 Leave Link  302 at Mon Feb  8 14:51:00 2021, MaxMem=   134217728 cpu:               0.8 elap:               0.2
 (Enter /home/spantaleone/g16/l303.exe)
 DipDrv:  MaxL=1.
 Leave Link  303 at Mon Feb  8 14:51:00 2021, MaxMem=   134217728 cpu:               0.2 elap:               0.1
 (Enter /home/spantaleone/g16/l401.exe)
 ExpMin= 2.53D-02 ExpMax= 1.14D+04 ExpMxC= 3.89D+02 IAcc=3 IRadAn=         5 AccDes= 0.00D+00
 Harris functional with IExCor= 3630 and IRadAn=       5 diagonalized for initial guess.
 HarFok:  IExCor= 3630 AccDes= 0.00D+00 IRadAn=         5 IDoV= 1 UseB2=F ITyADJ=14
 ICtDFT=  3500011 ScaDFX=  1.000000  1.000000  1.000000  1.000000
 FoFCou: FMM=F IPFlag=           0 FMFlag=      100000 FMFlg1=           0
         NFxFlg=           0 DoJE=T BraDBF=F KetDBF=T FulRan=T
         wScrn=  0.000000 ICntrl=       500 IOpCl=  0 I1Cent=   200000004 NGrid=           0
         NMat0=    1 NMatS0=      1 NMatT0=    0 NMatD0=    1 NMtDS0=    0 NMtDT0=    0
 Petite list used in FoFCou.
 Harris En= -56.5998690372270    
 JPrj=0 DoOrth=F DoCkMO=F.
 Leave Link  401 at Mon Feb  8 14:51:00 2021, MaxMem=   134217728 cpu:               2.2 elap:               0.6
 (Enter /home/spantaleone/g16/l502.exe)
 Keep J ints in memory in canonical form, NReq=26070887.
 FoFCou: FMM=F IPFlag=           0 FMFlag=           0 FMFlg1=           0
         NFxFlg=           0 DoJE=F BraDBF=F KetDBF=F FulRan=T
         wScrn=  0.000000 ICntrl=       600 IOpCl=  0 I1Cent=           0 NGrid=           0
         NMat0=    1 NMatS0=   6670 NMatT0=    0 NMatD0=    1 NMtDS0=    0 NMtDT0=    0
 Symmetry not used in FoFCou.
 Two-electron integral symmetry not used.
 Closed shell SCF:
 Using DIIS extrapolation, IDIIS=  1040.
 NGot=   134217728 LenX=   111934145 LenY=   111916804
 Requested convergence on RMS density matrix=1.00D-08 within 128 cycles.
 Requested convergence on MAX density matrix=1.00D-06.
 Requested convergence on             energy=1.00D-06.
 No special actions if energy rises.

 Cycle   1  Pass 1  IDiag  1:
 E= -56.4707049084969    
 DIIS: error= 4.18D-02 at cycle   1 NSaved=   1.
 NSaved= 1 IEnMin= 1 EnMin= -56.4707049084969     IErMin= 1 ErrMin= 4.18D-02
 ErrMax= 4.18D-02  0.00D+00 EMaxC= 1.00D-01 BMatC= 1.02D-01 BMatP= 1.02D-01
 IDIUse=3 WtCom= 5.82D-01 WtEn= 4.18D-01
 Coeff-Com:  0.100D+01
 Coeff-En:   0.100D+01
 Coeff:      0.100D+01
 Gap=     0.051 Goal=   None    Shift=    0.000
 GapD=    0.051 DampG=0.500 DampE=0.500 DampFc=0.2500 IDamp=-1.
 Damping current iteration by 2.50D-01
 RMSDP=4.09D-03 MaxDP=9.45D-02              OVMax= 3.69D-01

 Cycle   2  Pass 1  IDiag  1:
 E= -56.5004972692235     Delta-E=       -0.029792360727 Rises=F Damp=T
 DIIS: error= 1.12D-02 at cycle   2 NSaved=   2.
 NSaved= 2 IEnMin= 2 EnMin= -56.5004972692235     IErMin= 2 ErrMin= 1.12D-02
 ErrMax= 1.12D-02  0.00D+00 EMaxC= 1.00D-01 BMatC= 9.21D-03 BMatP= 1.02D-01
 IDIUse=3 WtCom= 8.88D-01 WtEn= 1.12D-01
 Coeff-Com: -0.359D+00 0.136D+01
 Coeff-En:   0.261D-01 0.974D+00
 Coeff:     -0.316D+00 0.132D+01
 Gap=     0.183 Goal=   None    Shift=    0.000
 RMSDP=7.88D-04 MaxDP=3.43D-02 DE=-2.98D-02 OVMax= 2.73D-01

 Cycle   3  Pass 1  IDiag  1:
 E= -56.5552911498067     Delta-E=       -0.054793880583 Rises=F Damp=F
 DIIS: error= 7.37D-04 at cycle   3 NSaved=   3.
 NSaved= 3 IEnMin= 3 EnMin= -56.5552911498067     IErMin= 3 ErrMin= 7.37D-04
 ErrMax= 7.37D-04  0.00D+00 EMaxC= 1.00D-01 BMatC= 4.86D-05 BMatP= 9.21D-03
 IDIUse=3 WtCom= 9.93D-01 WtEn= 7.37D-03
 Coeff-Com: -0.992D-02 0.240D-01 0.986D+00
 Coeff-En:   0.000D+00 0.000D+00 0.100D+01
 Coeff:     -0.984D-02 0.238D-01 0.986D+00
 Gap=     0.201 Goal=   None    Shift=    0.000
 RMSDP=1.15D-04 MaxDP=2.09D-03 DE=-5.48D-02 OVMax= 5.78D-03

 Cycle   4  Pass 1  IDiag  1:
 E= -56.5553231762644     Delta-E=       -0.000032026458 Rises=F Damp=F
 DIIS: error= 5.79D-04 at cycle   4 NSaved=   4.
 NSaved= 4 IEnMin= 4 EnMin= -56.5553231762644     IErMin= 4 ErrMin= 5.79D-04
 ErrMax= 5.79D-04  0.00D+00 EMaxC= 1.00D-01 BMatC= 2.06D-05 BMatP= 4.86D-05
 IDIUse=3 WtCom= 9.94D-01 WtEn= 5.79D-03
 Coeff-Com:  0.129D-01-0.151D-01 0.222D+00 0.780D+00
 Coeff-En:   0.000D+00 0.000D+00 0.175D+00 0.825D+00
 Coeff:      0.129D-01-0.150D-01 0.222D+00 0.781D+00
 Gap=     0.203 Goal=   None    Shift=    0.000
 RMSDP=2.40D-05 MaxDP=7.71D-04 DE=-3.20D-05 OVMax= 1.90D-03

 Cycle   5  Pass 1  IDiag  1:
 E= -56.5553421395168     Delta-E=       -0.000018963252 Rises=F Damp=F
 DIIS: error= 1.34D-04 at cycle   5 NSaved=   5.
 NSaved= 5 IEnMin= 5 EnMin= -56.5553421395168     IErMin= 5 ErrMin= 1.34D-04
 ErrMax= 1.34D-04  0.00D+00 EMaxC= 1.00D-01 BMatC= 7.37D-07 BMatP= 2.06D-05
 IDIUse=3 WtCom= 9.99D-01 WtEn= 1.34D-03
 Coeff-Com:  0.608D-02-0.628D-02 0.438D-01 0.238D+00 0.718D+00
 Coeff-En:   0.000D+00 0.000D+00 0.000D+00 0.000D+00 0.100D+01
 Coeff:      0.607D-02-0.627D-02 0.438D-01 0.238D+00 0.718D+00
 Gap=     0.203 Goal=   None    Shift=    0.000
 RMSDP=5.04D-06 MaxDP=9.85D-05 DE=-1.90D-05 OVMax= 3.22D-04

 Cycle   6  Pass 1  IDiag  1:
 E= -56.5553428190181     Delta-E=       -0.000000679501 Rises=F Damp=F
 DIIS: error= 1.16D-05 at cycle   6 NSaved=   6.
 NSaved= 6 IEnMin= 6 EnMin= -56.5553428190181     IErMin= 6 ErrMin= 1.16D-05
 ErrMax= 1.16D-05  0.00D+00 EMaxC= 1.00D-01 BMatC= 7.27D-09 BMatP= 7.37D-07
 IDIUse=1 WtCom= 1.00D+00 WtEn= 0.00D+00
 Coeff-Com:  0.199D-03-0.188D-03 0.167D-02-0.666D-02-0.924D-02 0.101D+01
 Coeff:      0.199D-03-0.188D-03 0.167D-02-0.666D-02-0.924D-02 0.101D+01
 Gap=     0.203 Goal=   None    Shift=    0.000
 RMSDP=7.29D-07 MaxDP=1.27D-05 DE=-6.80D-07 OVMax= 3.81D-05

 Cycle   7  Pass 1  IDiag  1:
 E= -56.5553428259865     Delta-E=       -0.000000006968 Rises=F Damp=F
 DIIS: error= 6.95D-07 at cycle   7 NSaved=   7.
 NSaved= 7 IEnMin= 7 EnMin= -56.5553428259865     IErMin= 7 ErrMin= 6.95D-07
 ErrMax= 6.95D-07  0.00D+00 EMaxC= 1.00D-01 BMatC= 3.39D-11 BMatP= 7.27D-09
 IDIUse=1 WtCom= 1.00D+00 WtEn= 0.00D+00
 Coeff-Com:  0.175D-05-0.832D-06 0.206D-04-0.226D-02-0.637D-02 0.135D+00
 Coeff-Com:  0.873D+00
 Coeff:      0.175D-05-0.832D-06 0.206D-04-0.226D-02-0.637D-02 0.135D+00
 Coeff:      0.873D+00
 Gap=     0.203 Goal=   None    Shift=    0.000
 RMSDP=5.05D-08 MaxDP=1.41D-06 DE=-6.97D-09 OVMax= 3.23D-06

 Cycle   8  Pass 1  IDiag  1:
 E= -56.5553428260152     Delta-E=       -0.000000000029 Rises=F Damp=F
 DIIS: error= 3.59D-07 at cycle   8 NSaved=   8.
 NSaved= 8 IEnMin= 8 EnMin= -56.5553428260152     IErMin= 8 ErrMin= 3.59D-07
 ErrMax= 3.59D-07  0.00D+00 EMaxC= 1.00D-01 BMatC= 5.60D-12 BMatP= 3.39D-11
 IDIUse=1 WtCom= 1.00D+00 WtEn= 0.00D+00
 Coeff-Com: -0.590D-05 0.471D-05-0.650D-04-0.140D-03-0.105D-02-0.183D-01
 Coeff-Com:  0.330D+00 0.689D+00
 Coeff:     -0.590D-05 0.471D-05-0.650D-04-0.140D-03-0.105D-02-0.183D-01
 Coeff:      0.330D+00 0.689D+00
 Gap=     0.203 Goal=   None    Shift=    0.000
 RMSDP=1.32D-08 MaxDP=4.26D-07 DE=-2.86D-11 OVMax= 1.02D-06

 Cycle   9  Pass 1  IDiag  1:
 E= -56.5553428260212     Delta-E=       -0.000000000006 Rises=F Damp=F
 DIIS: error= 1.83D-08 at cycle   9 NSaved=   9.
 NSaved= 9 IEnMin= 9 EnMin= -56.5553428260212     IErMin= 9 ErrMin= 1.83D-08
 ErrMax= 1.83D-08  0.00D+00 EMaxC= 1.00D-01 BMatC= 1.60D-14 BMatP= 5.60D-12
 IDIUse=1 WtCom= 1.00D+00 WtEn= 0.00D+00
 Coeff-Com: -0.862D-07-0.201D-06-0.196D-05 0.274D-04 0.359D-04-0.223D-02
 Coeff-Com:  0.253D-01 0.691D-01 0.908D+00
 Coeff:     -0.862D-07-0.201D-06-0.196D-05 0.274D-04 0.359D-04-0.223D-02
 Coeff:      0.253D-01 0.691D-01 0.908D+00
 Gap=     0.203 Goal=   None    Shift=    0.000
 RMSDP=1.31D-09 MaxDP=2.64D-08 DE=-6.07D-12 OVMax= 4.38D-08

 SCF Done:  E(RB97D3) =  -56.5553428260     A.U. after    9 cycles
            NFock=  9  Conv=0.13D-08     -V/T= 2.0062
 KE= 5.620489168423D+01 PE=-1.558030152494D+02 EE= 3.114536689147D+01
 Leave Link  502 at Mon Feb  8 14:51:04 2021, MaxMem=   134217728 cpu:              14.9 elap:               4.0
 (Enter /home/spantaleone/g16/l601.exe)
 Copying SCF densities to generalized density rwf, IOpCl= 0 IROHF=0.

 **********************************************************************

            Population analysis using the SCF Density.

 **********************************************************************

 Orbital symmetries:
       Occupied  (A) (A) (A) (A) (A)
       Virtual   (A) (A) (A) (A) (A) (A) (A) (A) (A) (A) (A) (A)
                 (A) (A) (A) (A) (A) (A) (A) (A) (A) (A) (A) (A)
                 (A) (A) (A) (A) (A) (A) (A) (A) (A) (A) (A) (A)
                 (A) (A) (A) (A) (A) (A) (A) (A) (A) (A) (A) (A)
                 (A) (A) (A) (A) (A) (A) (A) (A) (A) (A) (A) (A)
                 (A) (A) (A) (A) (A) (A) (A) (A) (A) (A) (A) (A)
                 (A) (A) (A) (A) (A) (A) (A) (A) (A) (A) (A) (A)
                 (A) (A) (A) (A) (A) (A) (A) (A) (A) (A) (A) (A)
                 (A) (A) (A) (A) (A) (A) (A) (A) (A) (A) (A) (A)
                 (A) (A)
 The electronic state is 1-A.
 Alpha  occ. eigenvalues --  -13.97738  -0.78026  -0.41618  -0.41556  -0.22673
 Alpha virt. eigenvalues --   -0.02397   0.02170   0.02183   0.06362   0.08402
 Alpha virt. eigenvalues --    0.11092   0.11108   0.11663   0.11692   0.15674
 Alpha virt. eigenvalues --    0.15700   0.16527   0.25962   0.28715   0.29570
 Alpha virt. eigenvalues --    0.29574   0.32196   0.32246   0.32302   0.38141
 Alpha virt. eigenvalues --    0.38146   0.43497   0.46603   0.46644   0.56741
 Alpha virt. eigenvalues --    0.61139   0.61142   0.64687   0.70866   0.76482
 Alpha virt. eigenvalues --    0.76571   0.76635   0.81799   0.81837   0.86954
 Alpha virt. eigenvalues --    0.88734   0.88752   0.94399   0.94886   0.94923
 Alpha virt. eigenvalues --    0.99100   0.99108   1.01955   1.05976   1.06100
 Alpha virt. eigenvalues --    1.11327   1.16073   1.16137   1.37990   1.50465
 Alpha virt. eigenvalues --    1.50599   1.51853   1.58812   1.60044   1.60110
 Alpha virt. eigenvalues --    1.73143   1.74694   1.74733   1.79546   1.79606
 Alpha virt. eigenvalues --    1.96029   2.09109   2.09223   2.09311   2.13053
 Alpha virt. eigenvalues --    2.13087   2.14619   2.98524   3.14811   3.14995
 Alpha virt. eigenvalues --    3.55362   3.58851   3.59054   3.76315   3.76385
 Alpha virt. eigenvalues --    3.78065   3.81960   3.82190   3.84390   3.92920
 Alpha virt. eigenvalues --    3.92991   3.93664   4.06941   4.09774   4.10111
 Alpha virt. eigenvalues --    4.24876   4.31001   4.31128   4.54950   4.55292
 Alpha virt. eigenvalues --    4.59513   4.59698   4.61891   4.61963   4.75544
 Alpha virt. eigenvalues --    5.13906   5.14167   5.24283   5.37843   5.38542
 Alpha virt. eigenvalues --    5.50485   5.80948   5.81248   5.91434   6.09285
 Alpha virt. eigenvalues --    6.40324   6.40345   7.11232   7.12122  16.15551
          Condensed to atoms (all electrons):
               1          2          3          4
     1  N    6.462109   0.309973   0.310009   0.309687
     2  H    0.309973   0.576113  -0.008353  -0.007863
     3  H    0.310009  -0.008353   0.576344  -0.007919
     4  H    0.309687  -0.007863  -0.007919   0.574367
 Mulliken charges:
               1
     1  N   -0.391778
     2  H    0.130131
     3  H    0.129919
     4  H    0.131728
 Sum of Mulliken charges =  -0.00000
 Mulliken charges with hydrogens summed into heavy atoms:
               1
     1  N   -0.000000
 Electronic spatial extent (au):  <R**2>=             27.1643
 Charge=             -0.0000 electrons
 Dipole moment (field-independent basis, Debye):
    X=             -0.0029    Y=              0.0006    Z=              1.4529  Tot=              1.4529
 Quadrupole moment (field-independent basis, Debye-Ang):
   XX=             -6.3656   YY=             -6.3931   ZZ=             -9.4996
   XY=              0.0000   XZ=             -0.0016   YZ=              0.0002
 Traceless Quadrupole moment (field-independent basis, Debye-Ang):
   XX=              1.0539   YY=              1.0263   ZZ=             -2.0802
   XY=              0.0000   XZ=             -0.0016   YZ=              0.0002
 Octapole moment (field-independent basis, Debye-Ang**2):
  XXX=              0.9053  YYY=              0.1656  ZZZ=              1.0828  XYY=             -0.9080
  XXY=             -0.1650  XXZ=              0.7846  XZZ=             -0.0027  YZZ=              0.0005
  YYZ=              0.7781  XYZ=              0.0000
 Hexadecapole moment (field-independent basis, Debye-Ang**3):
 XXXX=            -10.8940 YYYY=            -10.8833 ZZZZ=            -13.9136 XXXY=              0.0007
 XXXZ=              0.3029 YYYX=             -0.0005 YYYZ=              0.0559 ZZZX=             -0.0041
 ZZZY=              0.0006 XXYY=             -3.6277 XXZZ=             -4.3258 YYZZ=             -4.3184
 XXYZ=             -0.0555 YYXZ=             -0.3061 ZZXY=              0.0000
 N-N= 1.189741384767D+01 E-N=-1.558030145226D+02  KE= 5.620489168423D+01
 No NMR shielding tensors so no spin-rotation constants.
 Leave Link  601 at Mon Feb  8 14:51:05 2021, MaxMem=   134217728 cpu:               0.7 elap:               0.2
 (Enter /home/spantaleone/g16/l9999.exe)
 1\1\GINC-N2411\SP\RB97D3\Aug-CC-pVTZ\H3N1\SPANTALEONE\08-Feb-2021\0\\#
 P B97D3/aug-cc-pvtz\\Title\\0,1\N,0,7.79235,-8.586354,0.118695\H,0,8.7
 67593,-8.319668,0.018049\H,0,7.773061,-9.394263,0.733946\H,0,7.322073,
 -7.826418,0.607778\\Version=ES64L-G16RevB.01\State=1-A\HF=-56.5553428\
 RMSD=1.314e-09\Dipole=0.2443477,0.1100339,0.5049077\Quadrupole=0.35411
 46,0.6851976,-1.0393122,-0.2012919,-0.8720191,-0.3944184\PG=C01 [X(H3N
 1)]\\@


 Time has a wonderful way of weeding out the trivial.
                                -- Richard Ben Sapir
 Job cpu time:       0 days  0 hours  0 minutes 20.4 seconds.
 Elapsed time:       0 days  0 hours  0 minutes  5.5 seconds.
 File lengths (MBytes):  RWF=     10 Int=      0 D2E=      0 Chk=      2 Scr=      1
 Normal termination of Gaussian 16 at Mon Feb  8 14:51:05 2021.
