
                                 *****************
                                 * O   R   C   A *
                                 *****************

                                            #,                                       
                                            ###                                      
                                            ####                                     
                                            #####                                    
                                            ######                                   
                                           ########,                                 
                                     ,,################,,,,,                         
                               ,,#################################,,                 
                          ,,##########################################,,             
                       ,#########################################, ''#####,          
                    ,#############################################,,   '####,        
                  ,##################################################,,,,####,       
                ,###########''''           ''''###############################       
              ,#####''   ,,,,##########,,,,          '''####'''          '####       
            ,##' ,,,,###########################,,,                        '##       
           ' ,,###''''                  '''############,,,                           
         ,,##''                                '''############,,,,        ,,,,,,###''
      ,#''                                            '''#######################'''  
     '                                                          ''''####''''         
             ,#######,   #######,   ,#######,      ##                                
            ,#'     '#,  ##    ##  ,#'     '#,    #''#        ######   ,####,        
            ##       ##  ##   ,#'  ##            #'  '#       #        #'  '#        
            ##       ##  #######   ##           ,######,      #####,   #    #        
            '#,     ,#'  ##    ##  '#,     ,#' ,#      #,         ##   #,  ,#        
             '#######'   ##     ##  '#######'  #'      '#     #####' # '####'        



                  #######################################################
                  #                        -***-                        #
                  #          Department of theory and spectroscopy      #
                  #    Directorship and core code : Frank Neese         #
                  #        Max Planck Institute fuer Kohlenforschung    #
                  #                Kaiser Wilhelm Platz 1               #
                  #                 D-45470 Muelheim/Ruhr               #
                  #                      Germany                        #
                  #                                                     #
                  #                  All rights reserved                #
                  #                        -***-                        #
                  #######################################################


                         Program Version 5.0.2 -  RELEASE  -


 With contributions from (in alphabetic order):
   Daniel Aravena         : Magnetic Suceptibility
   Michael Atanasov       : Ab Initio Ligand Field Theory (pilot matlab implementation)
   Alexander A. Auer      : GIAO ZORA, VPT2 properties, NMR spectrum
   Ute Becker             : Parallelization
   Giovanni Bistoni       : ED, misc. LED, open-shell LED, HFLD
   Martin Brehm           : Molecular dynamics
   Dmytro Bykov           : SCF Hessian
   Vijay G. Chilkuri      : MRCI spin determinant printing, contributions to CSF-ICE
   Dipayan Datta          : RHF DLPNO-CCSD density
   Achintya Kumar Dutta   : EOM-CC, STEOM-CC
   Dmitry Ganyushin       : Spin-Orbit,Spin-Spin,Magnetic field MRCI
   Miquel Garcia          : C-PCM and meta-GGA Hessian, CC/C-PCM, Gaussian charge scheme
   Yang Guo               : DLPNO-NEVPT2, F12-NEVPT2, CIM, IAO-localization
   Andreas Hansen         : Spin unrestricted coupled pair/coupled cluster methods
   Benjamin Helmich-Paris : MC-RPA, TRAH-SCF, COSX integrals
   Lee Huntington         : MR-EOM, pCC
   Robert Izsak           : Overlap fitted RIJCOSX, COSX-SCS-MP3, EOM
   Marcus Kettner         : VPT2
   Christian Kollmar      : KDIIS, OOCD, Brueckner-CCSD(T), CCSD density, CASPT2, CASPT2-K
   Simone Kossmann        : Meta GGA functionals, TD-DFT gradient, OOMP2, MP2 Hessian
   Martin Krupicka        : Initial AUTO-CI
   Lucas Lang             : DCDCAS
   Marvin Lechner         : AUTO-CI (C++ implementation), FIC-MRCC
   Dagmar Lenk            : GEPOL surface, SMD
   Dimitrios Liakos       : Extrapolation schemes; Compound Job, initial MDCI parallelization
   Dimitrios Manganas     : Further ROCIS development; embedding schemes
   Dimitrios Pantazis     : SARC Basis sets
   Anastasios Papadopoulos: AUTO-CI, single reference methods and gradients
   Taras Petrenko         : DFT Hessian,TD-DFT gradient, ASA, ECA, R-Raman, ABS, FL, XAS/XES, NRVS
   Peter Pinski           : DLPNO-MP2, DLPNO-MP2 Gradient
   Christoph Reimann      : Effective Core Potentials
   Marius Retegan         : Local ZFS, SOC
   Christoph Riplinger    : Optimizer, TS searches, QM/MM, DLPNO-CCSD(T), (RO)-DLPNO pert. Triples
   Tobias Risthaus        : Range-separated hybrids, TD-DFT gradient, RPA, STAB
   Michael Roemelt        : Original ROCIS implementation
   Masaaki Saitow         : Open-shell DLPNO-CCSD energy and density
   Barbara Sandhoefer     : DKH picture change effects
   Avijit Sen             : IP-ROCIS
   Kantharuban Sivalingam : CASSCF convergence, NEVPT2, FIC-MRCI
   Bernardo de Souza      : ESD, SOC TD-DFT
   Georgi Stoychev        : AutoAux, RI-MP2 NMR, DLPNO-MP2 response
   Willem Van den Heuvel  : Paramagnetic NMR
   Boris Wezisla          : Elementary symmetry handling
   Frank Wennmohs         : Technical directorship


 We gratefully acknowledge several colleagues who have allowed us to
 interface, adapt or use parts of their codes:
   Stefan Grimme, W. Hujo, H. Kruse, P. Pracht,  : VdW corrections, initial TS optimization,
                  C. Bannwarth, S. Ehlert          DFT functionals, gCP, sTDA/sTD-DF
   Ed Valeev, F. Pavosevic, A. Kumar             : LibInt (2-el integral package), F12 methods
   Garnet Chan, S. Sharma, J. Yang, R. Olivares  : DMRG
   Ulf Ekstrom                                   : XCFun DFT Library
   Mihaly Kallay                                 : mrcc  (arbitrary order and MRCC methods)
   Jiri Pittner, Ondrej Demel                    : Mk-CCSD
   Frank Weinhold                                : gennbo (NPA and NBO analysis)
   Christopher J. Cramer and Donald G. Truhlar   : smd solvation model
   Lars Goerigk                                  : TD-DFT with DH, B97 family of functionals
   V. Asgeirsson, H. Jonsson                     : NEB implementation
   FAccTs GmbH                                   : IRC, NEB, NEB-TS, DLPNO-Multilevel, CI-OPT
                                                   MM, QMMM, 2- and 3-layer-ONIOM, Crystal-QMMM,
                                                   LR-CPCM, SF, NACMEs, symmetry and pop. for TD-DFT,
                                                   nearIR, NL-DFT gradient (VV10), updates on ESD,
                                                   ML-optimized integration grids
   S Lehtola, MJT Oliveira, MAL Marques          : LibXC Library
   Liviu Ungur et al                             : ANISO software


 Your calculation uses the libint2 library for the computation of 2-el integrals
 For citations please refer to: http://libint.valeyev.net

 Your ORCA version has been built with support for libXC version: 5.1.0
 For citations please refer to: https://tddft.org/programs/libxc/

 This ORCA versions uses:
   CBLAS   interface :  Fast vector & matrix operations
   LAPACKE interface :  Fast linear algebra routines
   SCALAPACK package :  Parallel linear algebra routines
   Shared memory     :  Shared parallel matrices
   BLAS/LAPACK       :  OpenBLAS 0.3.15  USE64BITINT DYNAMIC_ARCH NO_AFFINITY Haswell SINGLE_THREADED
        Core in use  :  Haswell
   Copyright (c) 2011-2014, The OpenBLAS Project




***************************************
The coordinates will be read from file: opt_full_ref.xyz
***************************************


Your calculation utilizes the semiempirical GFN2-xTB method
Please cite in your paper:
C. Bannwarth, Ehlert S., S. Grimme,  J. Chem. Theory Comput., 15, (2019), 1652.
   

Preparing ONIOM calculation             ...         done
================================================================================

================================================================================
                                        WARNINGS
                       Please study these warnings very carefully!
================================================================================

WARNING: Gradients needed for Numerical Frequencies
  ===> : Setting RunTyp to EnGrad

WARNING: Found dipole moment calculation with XTB calculation
  ===> : Switching off dipole moment calculation


WARNING: TRAH-SCF for XTB is not implemented!
  ===> : Turning TRAH off!

================================================================================
                                       INPUT FILE
================================================================================
NAME = oniom.inp
|  1> !QM/XTB2 XTB2
|  2> !NumFreq
|  3> %pal
|  4> nprocs 28
|  5> end
|  6> %qmmm
|  7> QMAtoms {45 46 47 108 109 110 177 178 179 264 265 266 321 322 323 324 325 326 363 364 365 390 391 392 471 472 473 } end 
|  8> ActiveAtoms {45 46 47 108 109 110 177 178 179 264 265 266 321 322 323 324 325 326 363 364 365 390 391 392 471 472 473 } end 
|  9> ExtendActiveRegion no
| 10> end
| 11> *xyzfile 0 1 opt_full_ref.xyz 
| 12> 
| 13> 
| 14>                          ****END OF INPUT****
================================================================================

------------------------------------------------------------------------------

                             **************************
                             *    2-layered ONIOM     *
                             **************************


------------------------------------------------------------------------------




Multiscale model                       ... QM1/QM2
QM2 method                             ... XTB2
Coupling Scheme                        ... subtractive
Embedding Scheme                       ... electrostatic
PrintLevel                             ... 1
Method for determining QM2 charges     ... Hirshfeld
Charge of total system                 ... 0
Charge alteration scheme               ... Charge shifting
Scaling factor for CS scheme           ... 0.06
Gradient projection scheme             ... Lever rule
Scaling factor for QM2 charges         ... 1.00
AutoFF method                          ... XTB2
AutoFF boundary                        ... no covalent bonds
Point charges in QM calc. from MM atoms... 573
              from charge shift scheme ... 0
Printing trajectories, xyz and allxyz files:
        QMMMRegion                     ... YES
        activeRegion                   ... YES
        activeRegionExt                ... NO
        qmRegion                       ... YES
        qm2Region                      ... NO
Parameter files:
        ORCA Forcefield Filename       ... oniom_L_QM2.ORCAFF.prms.tmp
        QM-LA bond distances Filename  ... oniom.H_DIST.prms.tmp
Forcefield type                        ... ORCA
Size of different subsystems (in atoms):
Size of QMMM System                    ... 600
Size of QM2 Subsystem                  ... 573
Size of QM1 Subsystem                  ... 27
Number of link atoms                   ... 0
Size of QM1 Subsystem plus link atoms  ... 27
Size of region for optimizer           ... 27
        optimized atoms = activeRegion ... 27
        fixed atoms (none)             ... 0
Composition of different systems (atoms start counting at 0):
QM1 Subsystem                          ...  45  46  47 108 109 110 177 178 179 264 
                                           265 266 321 322 323 324 325 326 363 364 
                                           365 390 391 392 471 472 473 
Active atoms                           ...  45  46  47 108 109 110 177 178 179 264 
                                           265 266 321 322 323 324 325 326 363 364 
                                           365 390 391 392 471 472 473 

                     *******************************
                     * Energy+Gradient Calculation *
                     *******************************

                    ************************************                      
                    *       QM/   XTB2 SP Energy       *                      
                    ************************************                      


------------------------------------------------------------------------------
                          XTB2 - FULL SYSTEM                         
------------------------------------------------------------------------------
Running XTB calculation
---------------------------------   --------------------
FINAL SINGLE POINT ENERGY (L-QM2)    -1018.346688484610
---------------------------------   --------------------
------------------------------------------------------------------------------
                                  XTB2 - SMALL SYSTEM                         
------------------------------------------------------------------------------
Running XTB calculation
---------------------------------   --------------------
FINAL SINGLE POINT ENERGY (S-QM2)      -45.826475939400
---------------------------------   --------------------
------------------------------------------------------------------------------
                                QM - SMALL SYSTEM                           
------------------------------------------------------------------------------
      -----------------------------------------------------------      
     |                   =====================                   |     
     |                           x T B                           |     
     |                   =====================                   |     
     |                         S. Grimme                         |     
     |          Mulliken Center for Theoretical Chemistry        |     
     |                    University of Bonn                     |     
      -----------------------------------------------------------      

   * xtb version 6.4.0 (d4b70c2) compiled by 'ehlert@majestix' on 2021-02-01

   xtb is free software: you can redistribute it and/or modify it under
   the terms of the GNU Lesser General Public License as published by
   the Free Software Foundation, either version 3 of the License, or
   (at your option) any later version.
   
   xtb is distributed in the hope that it will be useful,
   but WITHOUT ANY WARRANTY; without even the implied warranty of
   MERCHANTABILITY or FITNESS FOR A PARTICULAR PURPOSE.  See the
   GNU Lesser General Public License for more details.
   
   Cite this work as:
   * C. Bannwarth, E. Caldeweyher, S. Ehlert, A. Hansen, P. Pracht,
     J. Seibert, S. Spicher, S. Grimme, WIREs Comput. Mol. Sci., 2020,
     e01493. DOI: 10.1002/wcms.1493
   
   for GFN2-xTB:
   * C. Bannwarth, S. Ehlert and S. Grimme., J. Chem. Theory Comput., 2019,
     15, 1652-1671. DOI: 10.1021/acs.jctc.8b01176
   for GFN1-xTB:
   * S. Grimme, C. Bannwarth, P. Shushkov, J. Chem. Theory Comput., 2017,
     13, 1989-2009. DOI: 10.1021/acs.jctc.7b00118
   for GFN0-xTB:
   * P. Pracht, E. Caldeweyher, S. Ehlert, S. Grimme, ChemRxiv, 2019, preprint.
     DOI: 10.26434/chemrxiv.8326202.v1
   for GFN-FF:
   * S. Spicher and S. Grimme, Angew. Chem. Int. Ed., 2020, 59, 15665-15673.
     DOI: 10.1002/anie.202004239
   
   for DFT-D4:
   * E. Caldeweyher, C. Bannwarth and S. Grimme, J. Chem. Phys., 2017,
     147, 034112. DOI: 10.1063/1.4993215
   * E. Caldeweyher, S. Ehlert, A. Hansen, H. Neugebauer, S. Spicher,
     C. Bannwarth and S. Grimme, J. Chem. Phys., 2019, 150, 154122.
     DOI: 10.1063/1.5090222
   * E. Caldeweyher, J.-M. Mewes, S. Ehlert and S. Grimme, Phys. Chem. Chem. Phys.
     2020, 22, 8499-8512. DOI: 10.1039/D0CP00502A
   
   for sTDA-xTB:
   * S. Grimme and C. Bannwarth, J. Chem. Phys., 2016, 145, 054103.
     DOI: 10.1063/1.4959605
   
   in the mass-spec context:
   * V. Asgeirsson, C. Bauer and S. Grimme, Chem. Sci., 2017, 8, 4879.
     DOI: 10.1039/c7sc00601b
   * J. Koopman and S. Grimme, ACS Omega 2019, 4, 12, 15120-15133.
     DOI: 10.1021/acsomega.9b02011
   
   for metadynamics refer to:
   * S. Grimme, J. Chem. Theory Comput., 2019, 155, 2847-2862
     DOI: 10.1021/acs.jctc.9b00143
   
   with help from (in alphabetical order)
   P. Atkinson, C. Bannwarth, F. Bohle, G. Brandenburg, E. Caldeweyher
   M. Checinski, S. Dohm, S. Ehlert, S. Ehrlich, I. Gerasimov, J. Koopman
   C. Lavinge, S. Lehtola, F. März, M. Müller, F. Musil, H. Neugebauer
   J. Pisarek, P. Pracht, J. Seibert, P. Shushkov, S. Spicher, M. Stahn
   T. Strunk, J. Stückrath, T. Rose, and J. Unsleber
   
 * started run on 2022/04/11 at 10:11:12.909     

           -------------------------------------------------
          |                Calculation Setup                |
           -------------------------------------------------

          program call               : /work/spantaleone/apps/orca/ORCA_5.0.2/otool_xtb oniom_XTB.xyz --grad -c 0 -u 0 -P 28 --namespace oniom --input oniom_XTB.input.tmp --acc 1.000000
          hostname                   : n3643
          calculation namespace      : oniom
          coordinate file            : oniom_XTB.xyz
          omp threads                :                    28
          number of atoms            :                    27
          number of electrons        :                    72
          charge                     :                     0
          spin                       :                   0.0
          first test random number   :      0.75564016412450

   ID    Z sym.   atoms
    1    1 H      1, 3, 4, 6, 7, 9, 10, 12, 13, 15, 16, 18, 19, 21, 22, 24,
                  25, 27
    2    8 O      2, 5, 8, 11, 14, 17, 20, 23, 26

molecular fragmentation (1/2 indicates fragments):
111222222222222222222222222
# atoms in fragment 1/2:     3    24
 fragment masses (1/2) :       18.02      144.12
CMA distance (Bohr)    :   8.408
constraining FC (au)   :  0.0500
########################################################################
[WARNING] Please study the warnings concerning your input carefully
-1- prog_main_parseArguments: Process number higher than OMP_NUM_THREADS, I hope you know what you are doing.
########################################################################

           -------------------------------------------------
          |                 G F N 2 - x T B                 |
           -------------------------------------------------

        Reference                      10.1021/acs.jctc.8b01176
      * Hamiltonian:
        H0-scaling (s, p, d)           1.850000    2.230000    2.230000
        zeta-weighting                 0.500000
      * Dispersion:
        s8                             2.700000
        a1                             0.520000
        a2                             5.000000
        s9                             5.000000
      * Repulsion:
        kExp                           1.500000    1.000000
        rExp                           1.000000
      * Coulomb:
        alpha                          2.000000
        third order                    shell-resolved
        anisotropic                    true
        a3                             3.000000
        a5                             4.000000
        cn-shift                       1.200000
        cn-exp                         4.000000
        max-rad                        5.000000


          ...................................................
          :                      SETUP                      :
          :.................................................:
          :  # basis functions                  54          :
          :  # atomic orbitals                  54          :
          :  # shells                           36          :
          :  # electrons                        72          :
          :  max. iterations                   250          :
          :  Hamiltonian                  GFN2-xTB          :
          :  restarted?                      false          :
          :  GBSA solvation                  false          :
          :  PC potential                     true          :
          :  -> # point charges                573          :
          :  -> sum of PC               -0.0000018     e    :
          :  electronic temp.          300.0000000     K    :
          :  accuracy                    1.0000000          :
          :  -> integral cutoff          0.2500000E+02      :
          :  -> integral neglect         0.1000000E-07      :
          :  -> SCF convergence          0.1000000E-05 Eh   :
          :  -> wf. convergence          0.1000000E-03 e    :
          :  Broyden damping             0.4000000          :
          ...................................................

 iter      E             dE          RMSdq      gap      omega  full diag
   1    -46.0717018 -0.460717E+02  0.417E+00   11.11       0.0  T
   2    -46.0876629 -0.159610E-01  0.239E+00   11.29       1.0  T
   3    -46.0906402 -0.297729E-02  0.406E-01   10.85       1.0  T
   4    -46.0913005 -0.660341E-03  0.952E-02   10.94       1.0  T
   5    -46.0913539 -0.533653E-04  0.350E-02   10.92       1.0  T
   6    -46.0913585 -0.459323E-05  0.499E-03   10.93       3.9  T
   7    -46.0913586 -0.113222E-06  0.142E-03   10.93      13.5  T
   8    -46.0913586 -0.214837E-08  0.941E-04   10.93      20.5  T
   9    -46.0913586 -0.492847E-08  0.746E-05   10.93     257.9  T

   *** convergence criteria satisfied after 9 iterations ***

         #    Occupation            Energy/Eh            Energy/eV
      -------------------------------------------------------------
         1        2.0000           -0.7165993             -19.4997
       ...           ...                  ...                  ...
        30        2.0000           -0.4597840             -12.5114
        31        2.0000           -0.4543991             -12.3648
        32        2.0000           -0.4534284             -12.3384
        33        2.0000           -0.4533297             -12.3357
        34        2.0000           -0.4453725             -12.1192
        35        2.0000           -0.4409673             -11.9993
        36        2.0000           -0.4349517             -11.8356 (HOMO)
        37                         -0.0333697              -0.9080 (LUMO)
        38                         -0.0001750              -0.0048
        39                          0.0425741               1.1585
        40                          0.0664577               1.8084
        41                          0.0805174               2.1910
       ...                                ...                  ...
        54                          0.3295432               8.9673
      -------------------------------------------------------------
                  HL-Gap            0.4015820 Eh           10.9276 eV
             Fermi-level           -0.2341607 Eh           -6.3718 eV

 SCC (total)                   0 d,  0 h,  0 min,  0.015 sec
 SCC setup                      ...        0 min,  0.001 sec (  3.434%)
 Dispersion                     ...        0 min,  0.000 sec (  2.050%)
 classical contributions        ...        0 min,  0.000 sec (  1.048%)
 integral evaluation            ...        0 min,  0.002 sec ( 15.318%)
 iterations                     ...        0 min,  0.009 sec ( 59.459%)
 molecular gradient             ...        0 min,  0.002 sec ( 16.447%)
 printout                       ...        0 min,  0.000 sec (  1.022%)

         :::::::::::::::::::::::::::::::::::::::::::::::::::::
         ::                     SUMMARY                     ::
         :::::::::::::::::::::::::::::::::::::::::::::::::::::
         :: total energy             -45.826475939398 Eh    ::
         :: gradient norm              0.050845553964 Eh/a0 ::
         :: HOMO-LUMO gap             10.927603695530 eV    ::
         ::.................................................::
         :: SCC energy               -46.091358573008 Eh    ::
         :: -> isotropic ES            0.330830435116 Eh    ::
         :: -> anisotropic ES         -0.035658561304 Eh    ::
         :: -> anisotropic XC         -0.004195792979 Eh    ::
         :: -> dispersion             -0.011251674664 Eh    ::
         :: repulsion energy           0.264700924406 Eh    ::
         :: add. restraining           0.000000000000 Eh    ::
         :: total charge               0.000000000000 e     ::
         :::::::::::::::::::::::::::::::::::::::::::::::::::::


Property printout bound to 'properties.out'

           -------------------------------------------------
          | TOTAL ENERGY              -45.826475939398 Eh   |
          | GRADIENT NORM               0.050845553964 Eh/α |
          | HOMO-LUMO GAP              10.927603695530 eV   |
           -------------------------------------------------

------------------------------------------------------------------------
 * finished run on 2022/04/11 at 10:11:13.007     
------------------------------------------------------------------------
 total:
 * wall-time:     0 d,  0 h,  0 min,  0.098 sec
 *  cpu-time:     0 d,  0 h,  0 min,  2.277 sec
 * ratio c/w:    23.289 speedup
 SCF:
 * wall-time:     0 d,  0 h,  0 min,  0.020 sec
 *  cpu-time:     0 d,  0 h,  0 min,  0.538 sec
 * ratio c/w:    26.812 speedup


-------------------------   --------------------
FINAL SINGLE POINT ENERGY       -45.826475939400
-------------------------   --------------------



--------------------------------------   --------------------
FINAL SINGLE POINT ENERGY (QM/QM2)    -1018.346688484610
--------------------------------------   --------------------

                    ************************************                      
                    *QM/   XTB2 SP Gradient Calculation*                      
                    ************************************                      


------------------------------------------------------------------------------
                          XTB2 - FULL SYSTEM                         
------------------------------------------------------------------------------
Reading gradient                        ...         done
------------------------------------------------------------------------------
                                  XTB2 - SMALL SYSTEM                         
------------------------------------------------------------------------------
Reading gradient                        ...         done
------------------------------------------------------------------------------
                                     QM                                       
------------------------------------------------------------------------------


------------------
CARTESIAN GRADIENT (QM/MM)
------------------
   1   H   :    0.000009829    0.000004386   -0.000001857
   2   O   :   -0.000001051   -0.000005624   -0.000013328
   3   H   :   -0.000005191   -0.000011240   -0.000008131
   4   H   :   -0.000006736    0.000002814    0.000004109
   5   O   :    0.000000603    0.000001930   -0.000005460
   6   H   :    0.000001275   -0.000014756    0.000004214
   7   H   :   -0.000007570   -0.000011467   -0.000006417
   8   O   :    0.000024669    0.000013506    0.000004285
   9   H   :   -0.000022697    0.000010032   -0.000002185
  10   H   :   -0.000011781   -0.000004536   -0.000013596
  11   O   :    0.000007178    0.000013926    0.000022893
  12   H   :    0.000009143   -0.000004301   -0.000006494
  13   H   :    0.000009948   -0.000008512   -0.000012427
  14   O   :   -0.000005661   -0.000005215   -0.000006663
  15   H   :    0.000000003   -0.000002360    0.000009246
  16   H   :   -0.000006005    0.000011527   -0.000003523
  17   O   :    0.000002176    0.000018300    0.000000350
  18   H   :    0.000016827    0.000000218    0.000004551
  19   H   :   -0.000000550    0.000004091   -0.000006669
  20   O   :    0.000001829    0.000009613   -0.000009405
  21   H   :    0.000005763   -0.000008536    0.000001678
  22   H   :    0.000004647   -0.000011579   -0.000006413
  23   O   :    0.000002384    0.000002592    0.000010877
  24   H   :    0.000000830    0.000006040   -0.000003125
  25   H   :    0.000004845    0.000004184   -0.000007251
  26   O   :   -0.000012067    0.000003217   -0.000006726
  27   H   :    0.000011635   -0.000002884    0.000002975

Norm of the cartesian gradient     ...    0.000079562
RMS gradient                       ...    0.000008840
MAX gradient                       ...    0.000024669

----------------------------------------------------------------------------
                           ORCA NUMERICAL FREQUENCIES
                              (28-process run)
----------------------------------------------------------------------------

Number of atoms                ... 27
Central differences            ... used
Number of displacements        ... 162
Numerical increment            ... 5.000e-03 bohr
IR-spectrum generation         ... on
Raman-spectrum generation      ... off
Surface Crossing Hessian       ... off

The output will be reduced. Please look at the following files:
SCF program output             ... >oniom.lastscf
Integral program output        ... >oniom.lastint
Gradient program output        ... >oniom.lastgrad
Dipole moment program output   ... >oniom.lastmom
AutoCI program output          ... >oniom.lastautoci

List of participating nodes    ...  oniom.hostnames
	<< Calculating on displaced geometry  18 (of 162) >>
	<< Calculating on displaced geometry   5 (of 162) >>
	<< Calculating on displaced geometry  21 (of 162) >>
	<< Calculating on displaced geometry  25 (of 162) >>
	<< Calculating on displaced geometry   1 (of 162) >>
	<< Calculating on displaced geometry  12 (of 162) >>
	<< Calculating on displaced geometry   2 (of 162) >>
	<< Calculating on displaced geometry  10 (of 162) >>
	<< Calculating on displaced geometry  13 (of 162) >>
	<< Calculating on displaced geometry  27 (of 162) >>
	<< Calculating on displaced geometry   9 (of 162) >>
	<< Calculating on displaced geometry  11 (of 162) >>
	<< Calculating on displaced geometry   4 (of 162) >>
	<< Calculating on displaced geometry  17 (of 162) >>
	<< Calculating on displaced geometry  24 (of 162) >>
	<< Calculating on displaced geometry   8 (of 162) >>
	<< Calculating on displaced geometry  14 (of 162) >>
	<< Calculating on displaced geometry  20 (of 162) >>
	<< Calculating on displaced geometry  22 (of 162) >>
	<< Calculating on displaced geometry  28 (of 162) >>
	<< Calculating on displaced geometry  16 (of 162) >>
	<< Calculating on displaced geometry  23 (of 162) >>
	<< Calculating on displaced geometry  19 (of 162) >>
	<< Calculating on displaced geometry  15 (of 162) >>
	<< Calculating on displaced geometry   7 (of 162) >>
	<< Calculating on displaced geometry  26 (of 162) >>
	<< Calculating on displaced geometry   3 (of 162) >>
	<< Calculating on displaced geometry   6 (of 162) >>
	<< Calculating on displaced geometry  29 (of 162) >>
	<< Calculating on displaced geometry  32 (of 162) >>
	<< Calculating on displaced geometry  30 (of 162) >>
	<< Calculating on displaced geometry  31 (of 162) >>
	<< Calculating on displaced geometry  34 (of 162) >>
	<< Calculating on displaced geometry  35 (of 162) >>
	<< Calculating on displaced geometry  33 (of 162) >>
	<< Calculating on displaced geometry  36 (of 162) >>
	<< Calculating on displaced geometry  37 (of 162) >>
	<< Calculating on displaced geometry  38 (of 162) >>
	<< Calculating on displaced geometry  39 (of 162) >>
	<< Calculating on displaced geometry  41 (of 162) >>
	<< Calculating on displaced geometry  40 (of 162) >>
	<< Calculating on displaced geometry  43 (of 162) >>
	<< Calculating on displaced geometry  46 (of 162) >>
	<< Calculating on displaced geometry  42 (of 162) >>
	<< Calculating on displaced geometry  45 (of 162) >>
	<< Calculating on displaced geometry  48 (of 162) >>
	<< Calculating on displaced geometry  47 (of 162) >>
	<< Calculating on displaced geometry  44 (of 162) >>
	<< Calculating on displaced geometry  53 (of 162) >>
	<< Calculating on displaced geometry  52 (of 162) >>
	<< Calculating on displaced geometry  50 (of 162) >>
	<< Calculating on displaced geometry  54 (of 162) >>
	<< Calculating on displaced geometry  51 (of 162) >>
	<< Calculating on displaced geometry  49 (of 162) >>
	<< Calculating on displaced geometry  56 (of 162) >>
	<< Calculating on displaced geometry  55 (of 162) >>
	<< Calculating on displaced geometry  57 (of 162) >>
	<< Calculating on displaced geometry  58 (of 162) >>
	<< Calculating on displaced geometry  59 (of 162) >>
	<< Calculating on displaced geometry  60 (of 162) >>
	<< Calculating on displaced geometry  61 (of 162) >>
	<< Calculating on displaced geometry  62 (of 162) >>
	<< Calculating on displaced geometry  63 (of 162) >>
	<< Calculating on displaced geometry  64 (of 162) >>
	<< Calculating on displaced geometry  65 (of 162) >>
	<< Calculating on displaced geometry  69 (of 162) >>
	<< Calculating on displaced geometry  71 (of 162) >>
	<< Calculating on displaced geometry  68 (of 162) >>
	<< Calculating on displaced geometry  67 (of 162) >>
	<< Calculating on displaced geometry  72 (of 162) >>
	<< Calculating on displaced geometry  70 (of 162) >>
	<< Calculating on displaced geometry  66 (of 162) >>
	<< Calculating on displaced geometry  74 (of 162) >>
	<< Calculating on displaced geometry  73 (of 162) >>
	<< Calculating on displaced geometry  78 (of 162) >>
	<< Calculating on displaced geometry  79 (of 162) >>
	<< Calculating on displaced geometry  76 (of 162) >>
	<< Calculating on displaced geometry  75 (of 162) >>
	<< Calculating on displaced geometry  81 (of 162) >>
	<< Calculating on displaced geometry  80 (of 162) >>
	<< Calculating on displaced geometry  84 (of 162) >>
	<< Calculating on displaced geometry  77 (of 162) >>
	<< Calculating on displaced geometry  82 (of 162) >>
	<< Calculating on displaced geometry  83 (of 162) >>
	<< Calculating on displaced geometry  86 (of 162) >>
	<< Calculating on displaced geometry  85 (of 162) >>
	<< Calculating on displaced geometry  90 (of 162) >>
	<< Calculating on displaced geometry  89 (of 162) >>
	<< Calculating on displaced geometry  87 (of 162) >>
	<< Calculating on displaced geometry  88 (of 162) >>
	<< Calculating on displaced geometry  91 (of 162) >>
	<< Calculating on displaced geometry  92 (of 162) >>
	<< Calculating on displaced geometry  93 (of 162) >>
	<< Calculating on displaced geometry  94 (of 162) >>
	<< Calculating on displaced geometry  95 (of 162) >>
	<< Calculating on displaced geometry  96 (of 162) >>
	<< Calculating on displaced geometry  97 (of 162) >>
	<< Calculating on displaced geometry  98 (of 162) >>
	<< Calculating on displaced geometry  99 (of 162) >>
	<< Calculating on displaced geometry 101 (of 162) >>
	<< Calculating on displaced geometry 100 (of 162) >>
	<< Calculating on displaced geometry 102 (of 162) >>
	<< Calculating on displaced geometry 103 (of 162) >>
	<< Calculating on displaced geometry 104 (of 162) >>
	<< Calculating on displaced geometry 107 (of 162) >>
	<< Calculating on displaced geometry 105 (of 162) >>
	<< Calculating on displaced geometry 112 (of 162) >>
	<< Calculating on displaced geometry 110 (of 162) >>
	<< Calculating on displaced geometry 111 (of 162) >>
	<< Calculating on displaced geometry 109 (of 162) >>
	<< Calculating on displaced geometry 108 (of 162) >>
	<< Calculating on displaced geometry 106 (of 162) >>
	<< Calculating on displaced geometry 113 (of 162) >>
	<< Calculating on displaced geometry 114 (of 162) >>
	<< Calculating on displaced geometry 115 (of 162) >>
	<< Calculating on displaced geometry 116 (of 162) >>
	<< Calculating on displaced geometry 117 (of 162) >>
	<< Calculating on displaced geometry 118 (of 162) >>
	<< Calculating on displaced geometry 120 (of 162) >>
	<< Calculating on displaced geometry 121 (of 162) >>
	<< Calculating on displaced geometry 119 (of 162) >>
	<< Calculating on displaced geometry 122 (of 162) >>
	<< Calculating on displaced geometry 124 (of 162) >>
	<< Calculating on displaced geometry 123 (of 162) >>
	<< Calculating on displaced geometry 125 (of 162) >>
	<< Calculating on displaced geometry 126 (of 162) >>
	<< Calculating on displaced geometry 127 (of 162) >>
	<< Calculating on displaced geometry 128 (of 162) >>
	<< Calculating on displaced geometry 129 (of 162) >>
	<< Calculating on displaced geometry 130 (of 162) >>
	<< Calculating on displaced geometry 131 (of 162) >>
	<< Calculating on displaced geometry 133 (of 162) >>
	<< Calculating on displaced geometry 132 (of 162) >>
	<< Calculating on displaced geometry 134 (of 162) >>
	<< Calculating on displaced geometry 136 (of 162) >>
	<< Calculating on displaced geometry 135 (of 162) >>
	<< Calculating on displaced geometry 138 (of 162) >>
	<< Calculating on displaced geometry 137 (of 162) >>
	<< Calculating on displaced geometry 140 (of 162) >>
	<< Calculating on displaced geometry 139 (of 162) >>
	<< Calculating on displaced geometry 141 (of 162) >>
	<< Calculating on displaced geometry 142 (of 162) >>
	<< Calculating on displaced geometry 143 (of 162) >>
	<< Calculating on displaced geometry 144 (of 162) >>
	<< Calculating on displaced geometry 146 (of 162) >>
	<< Calculating on displaced geometry 145 (of 162) >>
	<< Calculating on displaced geometry 147 (of 162) >>
	<< Calculating on displaced geometry 148 (of 162) >>
	<< Calculating on displaced geometry 149 (of 162) >>
	<< Calculating on displaced geometry 150 (of 162) >>
	<< Calculating on displaced geometry 151 (of 162) >>
	<< Calculating on displaced geometry 152 (of 162) >>
	<< Calculating on displaced geometry 154 (of 162) >>
	<< Calculating on displaced geometry 153 (of 162) >>
	<< Calculating on displaced geometry 155 (of 162) >>
	<< Calculating on displaced geometry 156 (of 162) >>
	<< Calculating on displaced geometry 157 (of 162) >>
	<< Calculating on displaced geometry 158 (of 162) >>
	<< Calculating on displaced geometry 159 (of 162) >>
	<< Calculating on displaced geometry 160 (of 162) >>
	<< Calculating on displaced geometry 162 (of 162) >>
	<< Calculating on displaced geometry 161 (of 162) >>

-----------------------
VIBRATIONAL FREQUENCIES
-----------------------

Scaling factor for frequencies =  1.000000000 (already applied!)

   0:         0.00 cm**-1
   1:         0.00 cm**-1
   2:         0.00 cm**-1
   3:         0.00 cm**-1
   4:         0.00 cm**-1
   5:         0.00 cm**-1
   6:        72.19 cm**-1
   7:        74.43 cm**-1
   8:        92.68 cm**-1
   9:       107.10 cm**-1
  10:       139.15 cm**-1
  11:       147.11 cm**-1
  12:       164.47 cm**-1
  13:       178.08 cm**-1
  14:       191.45 cm**-1
  15:       195.51 cm**-1
  16:       217.91 cm**-1
  17:       232.85 cm**-1
  18:       241.21 cm**-1
  19:       258.11 cm**-1
  20:       264.49 cm**-1
  21:       268.71 cm**-1
  22:       292.62 cm**-1
  23:       323.87 cm**-1
  24:       341.95 cm**-1
  25:       350.53 cm**-1
  26:       353.23 cm**-1
  27:       357.35 cm**-1
  28:       373.89 cm**-1
  29:       410.39 cm**-1
  30:       460.58 cm**-1
  31:       498.51 cm**-1
  32:       511.80 cm**-1
  33:       517.22 cm**-1
  34:       545.38 cm**-1
  35:       565.81 cm**-1
  36:       585.29 cm**-1
  37:       598.23 cm**-1
  38:       609.85 cm**-1
  39:       619.82 cm**-1
  40:       659.99 cm**-1
  41:       678.01 cm**-1
  42:       704.63 cm**-1
  43:       727.24 cm**-1
  44:       742.42 cm**-1
  45:       745.66 cm**-1
  46:       754.37 cm**-1
  47:       780.49 cm**-1
  48:       802.41 cm**-1
  49:       834.93 cm**-1
  50:       883.58 cm**-1
  51:       908.67 cm**-1
  52:       943.46 cm**-1
  53:       963.90 cm**-1
  54:      1501.04 cm**-1
  55:      1508.89 cm**-1
  56:      1513.17 cm**-1
  57:      1526.13 cm**-1
  58:      1529.59 cm**-1
  59:      1533.93 cm**-1
  60:      1538.59 cm**-1
  61:      1543.96 cm**-1
  62:      1570.69 cm**-1
  63:      2922.76 cm**-1
  64:      3014.56 cm**-1
  65:      3022.16 cm**-1
  66:      3042.23 cm**-1
  67:      3100.85 cm**-1
  68:      3215.83 cm**-1
  69:      3256.11 cm**-1
  70:      3284.50 cm**-1
  71:      3308.75 cm**-1
  72:      3335.01 cm**-1
  73:      3354.29 cm**-1
  74:      3369.93 cm**-1
  75:      3410.49 cm**-1
  76:      3422.02 cm**-1
  77:      3456.87 cm**-1
  78:      3489.48 cm**-1
  79:      3649.85 cm**-1
  80:      3675.49 cm**-1


------------
NORMAL MODES
------------

These modes are the cartesian displacements weighted by the diagonal matrix
M(i,i)=1/sqrt(m[i]) where m[i] is the mass of the displaced atom
Thus, these vectors are normalized but *not* orthogonal

                  0          1          2          3          4          5    
      0       0.000000   0.000000   0.000000   0.000000   0.000000   0.000000
      1       0.000000   0.000000   0.000000   0.000000   0.000000   0.000000
      2       0.000000   0.000000   0.000000   0.000000   0.000000   0.000000
      3       0.000000   0.000000   0.000000   0.000000   0.000000   0.000000
      4       0.000000   0.000000   0.000000   0.000000   0.000000   0.000000
      5       0.000000   0.000000   0.000000   0.000000   0.000000   0.000000
      6       0.000000   0.000000   0.000000   0.000000   0.000000   0.000000
      7       0.000000   0.000000   0.000000   0.000000   0.000000   0.000000
      8       0.000000   0.000000   0.000000   0.000000   0.000000   0.000000
      9       0.000000   0.000000   0.000000   0.000000   0.000000   0.000000
     10       0.000000   0.000000   0.000000   0.000000   0.000000   0.000000
     11       0.000000   0.000000   0.000000   0.000000   0.000000   0.000000
     12       0.000000   0.000000   0.000000   0.000000   0.000000   0.000000
     13       0.000000   0.000000   0.000000   0.000000   0.000000   0.000000
     14       0.000000   0.000000   0.000000   0.000000   0.000000   0.000000
     15       0.000000   0.000000   0.000000   0.000000   0.000000   0.000000
     16       0.000000   0.000000   0.000000   0.000000   0.000000   0.000000
     17       0.000000   0.000000   0.000000   0.000000   0.000000   0.000000
     18       0.000000   0.000000   0.000000   0.000000   0.000000   0.000000
     19       0.000000   0.000000   0.000000   0.000000   0.000000   0.000000
     20       0.000000   0.000000   0.000000   0.000000   0.000000   0.000000
     21       0.000000   0.000000   0.000000   0.000000   0.000000   0.000000
     22       0.000000   0.000000   0.000000   0.000000   0.000000   0.000000
     23       0.000000   0.000000   0.000000   0.000000   0.000000   0.000000
     24       0.000000   0.000000   0.000000   0.000000   0.000000   0.000000
     25       0.000000   0.000000   0.000000   0.000000   0.000000   0.000000
     26       0.000000   0.000000   0.000000   0.000000   0.000000   0.000000
     27       0.000000   0.000000   0.000000   0.000000   0.000000   0.000000
     28       0.000000   0.000000   0.000000   0.000000   0.000000   0.000000
     29       0.000000   0.000000   0.000000   0.000000   0.000000   0.000000
     30       0.000000   0.000000   0.000000   0.000000   0.000000   0.000000
     31       0.000000   0.000000   0.000000   0.000000   0.000000   0.000000
     32       0.000000   0.000000   0.000000   0.000000   0.000000   0.000000
     33       0.000000   0.000000   0.000000   0.000000   0.000000   0.000000
     34       0.000000   0.000000   0.000000   0.000000   0.000000   0.000000
     35       0.000000   0.000000   0.000000   0.000000   0.000000   0.000000
     36       0.000000   0.000000   0.000000   0.000000   0.000000   0.000000
     37       0.000000   0.000000   0.000000   0.000000   0.000000   0.000000
     38       0.000000   0.000000   0.000000   0.000000   0.000000   0.000000
     39       0.000000   0.000000   0.000000   0.000000   0.000000   0.000000
     40       0.000000   0.000000   0.000000   0.000000   0.000000   0.000000
     41       0.000000   0.000000   0.000000   0.000000   0.000000   0.000000
     42       0.000000   0.000000   0.000000   0.000000   0.000000   0.000000
     43       0.000000   0.000000   0.000000   0.000000   0.000000   0.000000
     44       0.000000   0.000000   0.000000   0.000000   0.000000   0.000000
     45       0.000000   0.000000   0.000000   0.000000   0.000000   0.000000
     46       0.000000   0.000000   0.000000   0.000000   0.000000   0.000000
     47       0.000000   0.000000   0.000000   0.000000   0.000000   0.000000
     48       0.000000   0.000000   0.000000   0.000000   0.000000   0.000000
     49       0.000000   0.000000   0.000000   0.000000   0.000000   0.000000
     50       0.000000   0.000000   0.000000   0.000000   0.000000   0.000000
     51       0.000000   0.000000   0.000000   0.000000   0.000000   0.000000
     52       0.000000   0.000000   0.000000   0.000000   0.000000   0.000000
     53       0.000000   0.000000   0.000000   0.000000   0.000000   0.000000
     54       0.000000   0.000000   0.000000   0.000000   0.000000   0.000000
     55       0.000000   0.000000   0.000000   0.000000   0.000000   0.000000
     56       0.000000   0.000000   0.000000   0.000000   0.000000   0.000000
     57       0.000000   0.000000   0.000000   0.000000   0.000000   0.000000
     58       0.000000   0.000000   0.000000   0.000000   0.000000   0.000000
     59       0.000000   0.000000   0.000000   0.000000   0.000000   0.000000
     60       0.000000   0.000000   0.000000   0.000000   0.000000   0.000000
     61       0.000000   0.000000   0.000000   0.000000   0.000000   0.000000
     62       0.000000   0.000000   0.000000   0.000000   0.000000   0.000000
     63       0.000000   0.000000   0.000000   0.000000   0.000000   0.000000
     64       0.000000   0.000000   0.000000   0.000000   0.000000   0.000000
     65       0.000000   0.000000   0.000000   0.000000   0.000000   0.000000
     66       0.000000   0.000000   0.000000   0.000000   0.000000   0.000000
     67       0.000000   0.000000   0.000000   0.000000   0.000000   0.000000
     68       0.000000   0.000000   0.000000   0.000000   0.000000   0.000000
     69       0.000000   0.000000   0.000000   0.000000   0.000000   0.000000
     70       0.000000   0.000000   0.000000   0.000000   0.000000   0.000000
     71       0.000000   0.000000   0.000000   0.000000   0.000000   0.000000
     72       0.000000   0.000000   0.000000   0.000000   0.000000   0.000000
     73       0.000000   0.000000   0.000000   0.000000   0.000000   0.000000
     74       0.000000   0.000000   0.000000   0.000000   0.000000   0.000000
     75       0.000000   0.000000   0.000000   0.000000   0.000000   0.000000
     76       0.000000   0.000000   0.000000   0.000000   0.000000   0.000000
     77       0.000000   0.000000   0.000000   0.000000   0.000000   0.000000
     78       0.000000   0.000000   0.000000   0.000000   0.000000   0.000000
     79       0.000000   0.000000   0.000000   0.000000   0.000000   0.000000
     80       0.000000   0.000000   0.000000   0.000000   0.000000   0.000000
                  6          7          8          9         10         11    
      0      -0.032937  -0.068787  -0.038591   0.042870   0.047761  -0.244350
      1       0.077175  -0.098660   0.036021   0.050502   0.012568   0.073171
      2       0.047597   0.025419   0.010405   0.080316   0.080722  -0.123191
      3      -0.014700  -0.038133  -0.037058   0.076839   0.066006  -0.216468
      4       0.071516  -0.136530   0.030995   0.017706  -0.001070   0.069981
      5       0.050143   0.000374   0.006089   0.061585   0.074667  -0.116750
      6       0.010659  -0.035469  -0.072802   0.076917   0.034892  -0.100232
      7       0.064006  -0.124946   0.045744   0.031269   0.011645   0.035975
      8       0.052817  -0.018615  -0.010038   0.034126   0.056202  -0.084662
      9      -0.024944  -0.099398   0.003453  -0.045969  -0.011448  -0.088712
     10       0.046377   0.042939  -0.038644   0.089390   0.003993   0.015225
     11       0.024586   0.144119  -0.062187   0.114371   0.067641  -0.186437
     12      -0.036599  -0.104427  -0.008943  -0.048058  -0.015991  -0.109945
     13       0.042142   0.044977  -0.004580   0.083385   0.013390   0.053170
     14       0.041060   0.152207  -0.009795   0.111129   0.082530  -0.110629
     15      -0.054241  -0.038414   0.067546  -0.046902   0.007600  -0.017980
     16      -0.001773   0.153616  -0.011060   0.103413   0.020163   0.045105
     17       0.065553   0.105179   0.042107   0.092350   0.089289  -0.038037
     18       0.046897   0.024594  -0.013544   0.084774  -0.153743  -0.017271
     19       0.013954   0.001636  -0.121028   0.042799   0.074692   0.092371
     20      -0.004203   0.002924   0.048929  -0.000085  -0.014425  -0.100743
     21       0.054900   0.008316  -0.014903   0.103322  -0.166851  -0.004911
     22       0.020462  -0.022205  -0.130289   0.053344   0.079819   0.092182
     23      -0.000200   0.011282   0.059456   0.009652  -0.041460  -0.091274
     24       0.052892   0.003124  -0.023121   0.003516  -0.143885  -0.030656
     25       0.018630  -0.003633  -0.136200   0.026512   0.067227   0.101095
     26      -0.002626   0.049094   0.039443  -0.054967  -0.061958  -0.069846
     27       0.038504  -0.042566  -0.095064   0.093907  -0.000070   0.092520
     28       0.036152  -0.088305   0.076939   0.052017   0.064710  -0.118423
     29       0.078914  -0.057744  -0.060125  -0.010206   0.002482   0.033613
     30       0.065429  -0.055694  -0.125317   0.112054  -0.001372   0.146850
     31       0.058743  -0.136365   0.108283   0.066542   0.091008  -0.176632
     32       0.132254  -0.093309  -0.113727   0.029983   0.004064   0.128093
     33       0.063412  -0.065126  -0.106563   0.109985   0.003247   0.132470
     34       0.089071  -0.144216   0.063667   0.100805   0.078752  -0.030928
     35       0.186413  -0.092186  -0.217300   0.091639  -0.022401   0.391259
     36      -0.032873   0.077795   0.047299   0.091403   0.013821   0.120574
     37      -0.055574   0.098880   0.115717  -0.109987   0.013064  -0.144920
     38       0.105188  -0.007979  -0.124225  -0.150080  -0.058778   0.049000
     39      -0.057788   0.139040   0.114139   0.024613   0.039772   0.139448
     40      -0.097526   0.193615   0.113864  -0.194792   0.004992  -0.094000
     41       0.077358   0.054456  -0.142124  -0.203629  -0.070853   0.088275
     42      -0.055787   0.083890   0.106179   0.070249   0.044849   0.130087
     43      -0.087077   0.125500   0.115036  -0.148015   0.016195  -0.110954
     44       0.059157   0.038550  -0.174257  -0.167874  -0.082975   0.093276
     45      -0.016637   0.063385   0.260612   0.033177   0.037174   0.169743
     46      -0.125353   0.213325  -0.007991   0.172679  -0.048851  -0.075387
     47       0.087891  -0.052378   0.131942   0.070334   0.095292   0.015730
     48      -0.090692   0.065886   0.286570  -0.023920   0.075713   0.252140
     49      -0.080622   0.324585  -0.064486   0.180181   0.010562  -0.065469
     50       0.123958   0.005052   0.096759   0.087439   0.117570   0.004678
     51      -0.124078   0.116100   0.278135   0.026941   0.106179   0.322572
     52      -0.040112   0.263789  -0.063698   0.085176  -0.029515  -0.146381
     53       0.121300   0.023160   0.056169  -0.019867   0.126308   0.024456
     54       0.087728   0.076897   0.045481  -0.197539   0.065495  -0.041287
     55      -0.046183   0.132565  -0.107339  -0.224093   0.090637   0.093249
     56      -0.017144   0.108817  -0.015304  -0.185138  -0.153688  -0.003048
     57       0.089928   0.009991  -0.013238  -0.267531   0.029830  -0.099743
     58       0.010015   0.050332  -0.196063  -0.147342   0.129105   0.154102
     59      -0.033284   0.153301   0.029845  -0.188533  -0.155634  -0.006305
     60       0.075783  -0.028450  -0.044926  -0.291216   0.012349  -0.123480
     61       0.031695  -0.028096  -0.171080  -0.188111   0.111854   0.083304
     62      -0.067287   0.105795  -0.030917  -0.216467  -0.186096  -0.031541
     63       0.096176   0.053389  -0.084792   0.112755  -0.095401   0.027930
     64      -0.034800  -0.095427   0.008639   0.033889  -0.197210  -0.015053
     65       0.038354  -0.098197   0.130620   0.012755   0.061842   0.049692
     66       0.098777   0.091647  -0.071735   0.142865  -0.179809  -0.018680
     67      -0.057151  -0.137957   0.063458   0.029696  -0.194158  -0.004197
     68       0.008868  -0.149791   0.201149   0.009624   0.056898   0.059336
     69       0.088791   0.077768  -0.050716   0.143740  -0.206347  -0.026901
     70      -0.028871  -0.110794   0.009285   0.024396  -0.114744   0.033729
     71       0.022227  -0.089621   0.208924   0.026729   0.022574   0.026277
     72      -0.454172  -0.287454  -0.279495   0.046606   0.582865   0.012218
     73       0.195054  -0.166444   0.230280  -0.077972  -0.232819  -0.062620
     74      -0.407385  -0.128771  -0.119574   0.087632  -0.058075   0.038594
     75      -0.095625  -0.110817  -0.123112  -0.139697   0.135960  -0.102562
     76       0.024401  -0.179198   0.074006  -0.085754  -0.125042  -0.020009
     77      -0.406378  -0.128264  -0.118998   0.087659  -0.059792   0.038238
     78       0.018497  -0.003489  -0.100742  -0.045487  -0.079619  -0.097077
     79      -0.025053  -0.191638   0.032076  -0.111771  -0.078969  -0.013450
     80      -0.292623  -0.141822   0.008029   0.116519  -0.090754   0.016225
                 12         13         14         15         16         17    
      0      -0.077155   0.004422   0.052760  -0.097827   0.097910   0.000067
      1      -0.080000  -0.003747  -0.016949  -0.013192  -0.008642   0.011918
      2       0.134531   0.023500  -0.041991   0.090242   0.033113   0.002206
      3      -0.105869   0.008866  -0.016444  -0.056360   0.313127   0.000814
      4      -0.009098  -0.002327   0.015329  -0.007875  -0.050352   0.012685
      5       0.194912   0.026642  -0.037038   0.118876   0.080503   0.006289
      6      -0.152514   0.000715  -0.054198   0.026931   0.213714   0.000511
      7      -0.041979  -0.001648   0.012518  -0.030130  -0.025090   0.014245
      8       0.244368   0.025761  -0.020007   0.125097   0.069506   0.005966
      9      -0.007253  -0.009533   0.111473  -0.105809  -0.359528  -0.002426
     10      -0.231551  -0.019604   0.007101  -0.164773  -0.045553   0.001958
     11       0.065659   0.010953   0.021059  -0.010087  -0.146340   0.004980
     12      -0.010668  -0.010821   0.131363  -0.127174  -0.368522  -0.003299
     13      -0.255032  -0.019624  -0.017306  -0.171341   0.012748  -0.007636
     14       0.053466   0.013149  -0.036681   0.023900  -0.075912  -0.002560
     15       0.019139  -0.003823   0.089781  -0.100301  -0.280528  -0.033902
     16      -0.170225  -0.013880   0.017637  -0.170733   0.018800  -0.032455
     17       0.009292   0.013893  -0.098650   0.042316  -0.012528  -0.005934
     18      -0.021021  -0.016832   0.038219   0.049891   0.047199   0.014418
     19       0.004611   0.006880   0.004981  -0.001596   0.013857  -0.015226
     20       0.026314  -0.022899  -0.037476  -0.059773  -0.091776   0.007710
     21      -0.022936  -0.022276   0.042944   0.049039   0.050260   0.035956
     22       0.008750   0.003831  -0.000751  -0.001663   0.006229   0.021641
     23       0.018309  -0.026393  -0.029779  -0.058905  -0.076616  -0.004602
     24      -0.008183  -0.010127   0.040396   0.028232   0.055225   0.086503
     25       0.009361   0.004133   0.005973  -0.004367   0.029717   0.008419
     26       0.012891  -0.011109  -0.007164  -0.061897  -0.022304  -0.023373
     27      -0.112450  -0.000768  -0.121761   0.275414  -0.097534  -0.017383
     28       0.100827   0.020064   0.013430  -0.007209   0.087178   0.007491
     29       0.105821   0.000719   0.045653  -0.067073   0.025108  -0.009139
     30      -0.061225  -0.001405  -0.111571   0.284639  -0.132825  -0.022627
     31       0.150179   0.031132  -0.006612   0.055656   0.096364   0.009716
     32       0.195885   0.000826   0.051685  -0.020562  -0.047962  -0.019220
     33      -0.073284   0.000541  -0.123019   0.318683  -0.158037  -0.030089
     34       0.179164   0.023420  -0.000482   0.121417  -0.077899  -0.028849
     35       0.265635  -0.014527   0.079946   0.035686  -0.295812  -0.071673
     36       0.114518   0.020121   0.027479  -0.029650   0.032316   0.078100
     37       0.015473  -0.012896  -0.112763   0.283622  -0.100205   0.026664
     38       0.058709  -0.020162   0.046818  -0.095425   0.089405   0.031170
     39       0.110147   0.013611   0.048894  -0.129683   0.056355   0.103934
     40      -0.062639  -0.024527  -0.127245   0.278106  -0.132619   0.027812
     41      -0.001211  -0.028492   0.028660  -0.072704   0.052404   0.025578
     42       0.109562   0.020572   0.062471  -0.153534   0.074887   0.077749
     43      -0.050855  -0.017440  -0.102969   0.229610  -0.099882   0.006449
     44      -0.041985  -0.024604   0.011798  -0.016135   0.025954  -0.015376
     45       0.022182   0.005724  -0.216903   0.032248   0.043329  -0.064515
     46       0.107499   0.007585   0.252799  -0.000431  -0.092339  -0.049120
     47      -0.207535   0.000657  -0.061925  -0.012011  -0.016635   0.019801
     48       0.099493   0.014013  -0.058127  -0.012540   0.063196  -0.084507
     49       0.079112   0.002744   0.153236  -0.110400  -0.106965  -0.051765
     50      -0.235581  -0.003990  -0.133154  -0.058013  -0.029084   0.020400
     51       0.178242   0.025966   0.009376  -0.105863   0.111321  -0.123259
     52      -0.019950  -0.014742   0.079993   0.005859  -0.168491  -0.002390
     53      -0.243785  -0.009681  -0.083351  -0.097461  -0.046529   0.039291
     54       0.034826   0.021301   0.049721  -0.062731  -0.015709   0.216706
     55      -0.070956   0.005277   0.013870   0.134029   0.108362  -0.042186
     56      -0.017715  -0.040584   0.009541  -0.028522   0.130730  -0.078873
     57      -0.005206   0.102643   0.033130  -0.035779  -0.038564   0.186078
     58      -0.031021   0.046757   0.052153   0.029131   0.126185  -0.007617
     59      -0.017998  -0.074900  -0.002019  -0.002858   0.124947  -0.071240
     60      -0.026496   0.163774   0.017572  -0.029275  -0.053702   0.166070
     61       0.009560   0.130368  -0.105459  -0.082517   0.009026   0.108800
     62      -0.066114  -0.010602   0.021136   0.045382   0.140718  -0.150034
     63      -0.039877   0.013372  -0.120122  -0.015965   0.017749   0.009875
     64       0.027642  -0.043465   0.237914   0.133018   0.125384   0.063551
     65      -0.154981  -0.009883   0.285238   0.102264   0.005575  -0.007607
     66      -0.009494  -0.014654  -0.112405   0.018636   0.043165  -0.006403
     67       0.024637  -0.047089   0.208149   0.115123   0.111099   0.071472
     68      -0.153516  -0.016890   0.243545   0.079686  -0.011552   0.001159
     69      -0.020376  -0.023836  -0.039364   0.060119   0.069781  -0.019880
     70       0.035395  -0.016786   0.043500   0.025791   0.056239   0.108126
     71      -0.088967  -0.023029   0.062028   0.012412  -0.054794   0.016117
     72       0.286928  -0.914720  -0.325204  -0.149219  -0.004468   0.596217
     73      -0.016962   0.176100   0.010954  -0.096222  -0.069497  -0.423785
     74      -0.048576   0.097960  -0.103710  -0.013948  -0.004089   0.066865
     75      -0.005501  -0.049724   0.066910   0.008768   0.023593  -0.248859
     76       0.099227  -0.003475  -0.277128  -0.194970  -0.044816  -0.062056
     77      -0.050142   0.101824  -0.100721  -0.012570  -0.003937   0.062923
     78      -0.048072   0.064222   0.109376   0.065878   0.050760  -0.337140
     79       0.127648  -0.029987  -0.359281  -0.231504  -0.044645   0.010157
     80      -0.119009   0.144173   0.117108   0.058940  -0.032304  -0.129322
                 18         19         20         21         22         23    
      0       0.105400  -0.090671   0.002579   0.031138  -0.036256   0.079602
      1      -0.158951   0.081286   0.037877   0.013539  -0.150645   0.170715
      2      -0.071623  -0.024399   0.083896  -0.025975  -0.087521   0.076162
      3       0.157687  -0.045521  -0.032819   0.047935  -0.048725   0.071353
      4      -0.151929   0.076806   0.026147   0.031487  -0.179779   0.178811
      5      -0.061047  -0.009106   0.056554   0.007397  -0.135882   0.100082
      6       0.053947  -0.007084  -0.009710   0.049847  -0.128229   0.040700
      7      -0.160397   0.073274   0.041348   0.027038  -0.150268   0.184194
      8      -0.032830  -0.008497   0.023594   0.019265  -0.178128   0.098037
      9      -0.056107  -0.094294   0.091656  -0.076160   0.000872   0.000101
     10       0.032230  -0.006999  -0.018031  -0.079834   0.047804   0.002652
     11      -0.053860  -0.113887   0.080175  -0.048572   0.007408   0.001515
     12      -0.041784  -0.095306   0.096978  -0.056481  -0.007285  -0.005322
     13       0.080384   0.023720   0.001510  -0.078958   0.029135  -0.018047
     14      -0.039377  -0.081756   0.093483  -0.084014   0.002179  -0.003810
     15       0.025374  -0.045880   0.134251  -0.061007  -0.021377  -0.040362
     16       0.126476   0.038456   0.029102  -0.028470   0.026252  -0.049470
     17      -0.024438  -0.053680   0.100832  -0.131262  -0.002295  -0.007513
     18       0.013704  -0.071289   0.032726   0.153282   0.009852   0.049820
     19      -0.050931   0.147312  -0.114131  -0.038839  -0.014005  -0.118923
     20      -0.024165   0.355416  -0.109744  -0.022956   0.070086   0.083611
     21       0.015597  -0.028675   0.022518   0.190160   0.018583   0.046237
     22      -0.030066   0.187865  -0.115083  -0.022516  -0.014157  -0.127647
     23      -0.042639   0.363676  -0.112799   0.000209   0.087307   0.106550
     24       0.023699  -0.012462   0.059966   0.141319   0.035960   0.029335
     25      -0.053756   0.169838  -0.107553  -0.049409  -0.005927  -0.134610
     26      -0.086943   0.307516  -0.072261  -0.023388   0.112715   0.110451
     27      -0.139852   0.036223   0.087719   0.047569  -0.012818  -0.128585
     28      -0.020088  -0.026349   0.001422   0.002522   0.094852  -0.135792
     29       0.120486  -0.018133  -0.021359  -0.024140  -0.049412  -0.048480
     30      -0.070040   0.000859   0.044991   0.036009   0.027546  -0.064072
     31      -0.076731  -0.018168   0.032738   0.007473   0.142432  -0.244619
     32       0.237129  -0.075649  -0.092508  -0.039977   0.027338   0.065932
     33      -0.081665  -0.009200   0.056736   0.031165   0.169657  -0.108884
     34       0.131395  -0.136666  -0.075681  -0.033299   0.559738  -0.028087
     35       0.601419  -0.258172  -0.291248  -0.100227   0.499361   0.492770
     36      -0.219609  -0.133767  -0.241224  -0.036960   0.019984  -0.007945
     37       0.107472  -0.051259  -0.164447   0.000770  -0.069724  -0.026752
     38       0.013547  -0.011010  -0.010861  -0.021011  -0.170364  -0.280529
     39      -0.197407  -0.159949  -0.248146  -0.066310   0.005915   0.018524
     40       0.132418  -0.068680  -0.150855  -0.004673  -0.051765   0.028890
     41       0.039007  -0.017287   0.003304  -0.018439  -0.149860  -0.247427
     42      -0.214172  -0.158295  -0.233709  -0.067137   0.024981   0.038114
     43       0.108109  -0.079017  -0.140930  -0.013958  -0.030936   0.054161
     44       0.036359  -0.004806   0.025779   0.000942  -0.118263  -0.214270
     45       0.111913   0.119480   0.145035  -0.156991   0.007225   0.029390
     46       0.053191  -0.009823   0.048379   0.127725  -0.033390  -0.014126
     47      -0.030994  -0.125853   0.019185  -0.136988   0.005707   0.010152
     48       0.132718   0.118463   0.162010  -0.047429  -0.032749  -0.041699
     49       0.063716   0.016351   0.069660   0.132991  -0.025116  -0.020788
     50      -0.029092  -0.108901   0.029334  -0.149329   0.017655   0.021164
     51       0.130858   0.155039   0.216711   0.029216  -0.022663  -0.028096
     52       0.077151  -0.029032  -0.004455   0.047832  -0.045149  -0.057386
     53      -0.006193  -0.130902  -0.007530  -0.114729  -0.032898  -0.079582
     54      -0.014560   0.058613  -0.036902   0.031455   0.054847   0.010533
     55      -0.055465  -0.131868   0.134981   0.093655   0.117996   0.184731
     56      -0.135890  -0.002261   0.100974   0.024482   0.112375   0.009326
     57       0.063080   0.113921   0.052551   0.014312   0.039323   0.003243
     58      -0.083196  -0.069716   0.097936   0.083840   0.091691   0.149455
     59      -0.146503  -0.037757   0.077931   0.027361   0.122015   0.016421
     60       0.100415   0.137653   0.090366  -0.003936   0.029870   0.008400
     61      -0.004957   0.085311   0.084174   0.031333   0.055429   0.075561
     62      -0.106866  -0.044240   0.156767   0.012459   0.119439   0.043538
     63      -0.019883   0.025067  -0.073397   0.108814  -0.015243  -0.108495
     64       0.023225  -0.041102   0.049123  -0.274745  -0.013746   0.012703
     65       0.000626  -0.036805  -0.074329   0.276479  -0.008063  -0.077392
     66      -0.012186   0.066477  -0.032299  -0.030581   0.001650  -0.025413
     67       0.038231  -0.024867   0.063462  -0.283787  -0.004438   0.036722
     68       0.021949  -0.015019  -0.050054   0.252024   0.004069  -0.040384
     69      -0.008294   0.015846  -0.020916  -0.062920  -0.005931  -0.016636
     70       0.029936   0.049356   0.030063  -0.210093  -0.003911  -0.025921
     71       0.035627   0.149551  -0.022473   0.132320   0.038330   0.034617
     72       0.088584  -0.024130   0.156433   0.374973   0.031155  -0.075021
     73      -0.053363  -0.254368  -0.360074   0.289975  -0.131654  -0.215133
     74       0.007880  -0.007504   0.014383   0.004991   0.011244  -0.017684
     75      -0.037282   0.038920  -0.083606  -0.117220  -0.009977   0.014786
     76       0.016807  -0.111973   0.001514   0.135693  -0.005935   0.018877
     77       0.007371  -0.007723   0.012241   0.002462   0.010355  -0.018315
     78      -0.064554  -0.046691  -0.175461  -0.063791  -0.051134  -0.051880
     79       0.033240  -0.058315   0.099809   0.069674   0.031865   0.095229
     80      -0.032584  -0.138647  -0.273312   0.214918  -0.094427  -0.238108
                 24         25         26         27         28         29    
      0      -0.109347  -0.052001  -0.003277   0.021595   0.020216   0.069717
      1      -0.118070  -0.052258   0.010835   0.081612  -0.002832   0.198438
      2       0.058638   0.091030  -0.029022   0.084137  -0.147151  -0.154969
      3      -0.068185  -0.022577  -0.003353   0.016343   0.014602   0.043849
      4      -0.105034  -0.031872   0.008611   0.029471   0.031394   0.116296
      5       0.063401   0.106626  -0.030410   0.034192  -0.111790  -0.251389
      6       0.028558   0.024276  -0.011853  -0.084481   0.104999   0.171847
      7      -0.162950  -0.076998   0.015696   0.098857  -0.017066   0.140771
      8       0.127998   0.157983  -0.037378  -0.064984  -0.035644  -0.296780
      9       0.049556   0.045766  -0.013526   0.001130  -0.028120  -0.084420
     10       0.205155   0.159340  -0.056614   0.026577  -0.158870   0.023306
     11       0.002773  -0.004046  -0.030591   0.045895  -0.033891   0.399204
     12       0.023343   0.028534  -0.007204  -0.000606  -0.017549  -0.056872
     13       0.174842   0.131345  -0.034360   0.035989  -0.126217  -0.007734
     14       0.022528   0.000509  -0.020095   0.064506  -0.024838   0.346722
     15       0.011397   0.003569   0.021136   0.005975   0.035319  -0.144631
     16       0.157496   0.105150  -0.030614   0.024633  -0.105473  -0.029619
     17       0.041838   0.017078  -0.003365   0.080634  -0.013301   0.299470
     18       0.140494  -0.126024  -0.114974   0.060640   0.063402  -0.021072
     19      -0.090753   0.092628  -0.140463   0.019874   0.037356  -0.014758
     20       0.090375  -0.091674   0.071477   0.025363   0.031612  -0.012740
     21       0.133294  -0.129851  -0.163050   0.058120   0.067920  -0.024070
     22      -0.102839   0.102357  -0.164833   0.027515   0.043898  -0.016824
     23       0.104817  -0.114381   0.068605   0.009991   0.024834  -0.012331
     24       0.075010  -0.036019  -0.181902   0.075395   0.098100  -0.025960
     25      -0.120612   0.127824  -0.167439   0.023632   0.047680  -0.017513
     26       0.083054  -0.069557   0.056029   0.006641   0.039429  -0.013814
     27       0.063651   0.006308   0.004023  -0.048699   0.036688   0.015010
     28       0.030349  -0.025931   0.012777  -0.052153   0.058629   0.103304
     29       0.143696   0.080089  -0.006292  -0.155127   0.153270   0.113129
     30       0.021955   0.009665  -0.002184  -0.020209   0.010868  -0.003214
     31       0.038811  -0.054380   0.021067  -0.028262   0.013969   0.004611
     32       0.055328   0.077845  -0.017048  -0.089600   0.091876   0.061143
     33      -0.105283  -0.105287   0.018136   0.131248  -0.117354  -0.125825
     34      -0.431626  -0.306244   0.046633   0.428193  -0.340671  -0.245846
     35      -0.524579  -0.159336  -0.006664   0.429981  -0.296326  -0.163979
     36      -0.000099  -0.059800  -0.013584  -0.029926  -0.098342  -0.012066
     37       0.096200   0.011370  -0.034101  -0.109129   0.059701   0.057956
     38       0.074725  -0.128382   0.017763  -0.039759   0.017070   0.028269
     39       0.025950  -0.023266  -0.011339  -0.014801  -0.028364   0.005425
     40       0.017474  -0.023045  -0.010411  -0.007281  -0.006111   0.009227
     41       0.003852  -0.168055   0.036606   0.043445  -0.055382  -0.018141
     42       0.052003  -0.034765  -0.036928  -0.047330  -0.024443   0.017866
     43       0.074702  -0.009980  -0.044624  -0.064146   0.036695   0.037047
     44      -0.046220  -0.223544   0.035882   0.068488  -0.136098  -0.049234
     45      -0.038976  -0.000291   0.034278  -0.063317  -0.050115   0.005050
     46      -0.096485   0.002589   0.121129  -0.011027   0.113177  -0.077955
     47      -0.075785  -0.056415   0.051554  -0.000420   0.174017  -0.155828
     48       0.008414  -0.003048   0.011770   0.029126   0.016517   0.005562
     49      -0.087755  -0.047327   0.019816  -0.046565   0.045365  -0.094018
     50      -0.080724  -0.082595   0.004950  -0.034131   0.132256  -0.167927
     51      -0.013466  -0.013998  -0.043698   0.037685   0.034558   0.055395
     52      -0.036666  -0.029895   0.085793  -0.040990   0.012538  -0.160910
     53      -0.008261  -0.100258  -0.003903   0.028546   0.131865  -0.227597
     54      -0.017367   0.173102   0.089849   0.075407   0.098287  -0.015106
     55       0.063430   0.001312   0.100128  -0.005043   0.008648  -0.017945
     56      -0.082325   0.103877  -0.092543  -0.022687   0.024222   0.006431
     57      -0.051366   0.091506   0.006939   0.011517   0.027093   0.007616
     58       0.094667  -0.059570   0.120961  -0.019431   0.006498  -0.011191
     59      -0.087359   0.151746  -0.078306  -0.000208   0.045263  -0.002735
     60      -0.064422   0.026095  -0.050448  -0.035405  -0.026477   0.021149
     61       0.001132  -0.082960   0.075362  -0.123949  -0.111788   0.027441
     62      -0.093201   0.060190  -0.171454  -0.048369  -0.008298   0.009805
     63      -0.117963   0.160930   0.087500  -0.014790  -0.022864   0.006057
     64       0.021685   0.013423   0.049540   0.024540   0.026510  -0.002907
     65      -0.029958   0.078525   0.023640  -0.018008  -0.079697   0.057038
     66      -0.086807   0.066887   0.172997  -0.070623  -0.085027   0.017294
     67       0.005770  -0.017864   0.037208   0.000153   0.023118  -0.011335
     68      -0.053381   0.032279   0.018352  -0.059056  -0.095012   0.048679
     69      -0.064912   0.061830   0.195271  -0.056034  -0.071017   0.016321
     70      -0.070115   0.039591  -0.045207  -0.016553   0.010597  -0.015026
     71      -0.098373  -0.073864   0.025594  -0.188719  -0.229668   0.069713
     72       0.021771   0.243333   0.349129   0.145783   0.141168   0.000813
     73       0.170194   0.385676   0.468858   0.429490   0.425856  -0.063325
     74      -0.015602  -0.007551  -0.005885  -0.009442  -0.007019   0.005358
     75      -0.000242  -0.041987  -0.034895  -0.020346  -0.016035   0.005246
     76      -0.013148  -0.012604  -0.015612  -0.028117  -0.029135   0.012992
     77      -0.015013  -0.007532  -0.005445  -0.008543  -0.006059   0.004976
     78      -0.011494   0.066049   0.152094   0.007307  -0.035682   0.036570
     79      -0.054750  -0.148932  -0.189085  -0.154641  -0.144811   0.025424
     80       0.137738   0.382342   0.466893   0.403293   0.397372  -0.056291
                 30         31         32         33         34         35    
      0      -0.011289   0.032980  -0.001807   0.035102  -0.002244  -0.011560
      1       0.000863  -0.008134   0.001953  -0.011495   0.012329  -0.004313
      2      -0.000967   0.000921  -0.001575  -0.020062   0.011578  -0.006462
      3       0.000784   0.007295   0.002765   0.008478  -0.001465  -0.000036
      4      -0.002423   0.001852   0.001477   0.011652   0.000460  -0.001967
      5      -0.001089   0.001173  -0.001201  -0.009272  -0.000340   0.001565
      6       0.034426  -0.170827  -0.043907  -0.168079   0.001250   0.075997
      7      -0.011760   0.041259   0.009418   0.038581   0.015125  -0.022690
      8       0.006565  -0.017760  -0.001674  -0.004771  -0.028798   0.018181
      9       0.009129   0.000391   0.011462  -0.028760  -0.020649  -0.010545
     10      -0.014127   0.035970   0.002664  -0.077733  -0.065115  -0.022014
     11      -0.030687   0.037185  -0.019496  -0.022611  -0.021528   0.006161
     12      -0.002019   0.000860   0.001391  -0.004347  -0.001243   0.001909
     13       0.002000  -0.000055   0.002977  -0.002275  -0.003324  -0.001168
     14       0.005628   0.001437  -0.001066   0.004132   0.000231   0.002119
     15       0.026210  -0.047728   0.002213   0.076288   0.065176   0.017146
     16      -0.018146  -0.008347  -0.028355   0.039998   0.041524   0.020352
     17       0.043074  -0.023873   0.023763   0.024130   0.008194  -0.004920
     18      -0.032623  -0.042151   0.078775   0.020275  -0.001465   0.005938
     19      -0.013538  -0.021503   0.125716   0.005369  -0.018745   0.102660
     20      -0.038513  -0.032979  -0.058325   0.016884   0.041217  -0.131518
     21       0.016386   0.003946   0.017778   0.000079  -0.003342   0.002423
     22       0.011439   0.003784   0.014675  -0.000034   0.018680  -0.016902
     23      -0.009902  -0.007256  -0.008206  -0.000774  -0.000765  -0.006757
     24      -0.003131   0.007146  -0.161208   0.033841   0.033558  -0.035467
     25      -0.003803  -0.004716   0.032700   0.012744  -0.010795   0.089543
     26      -0.041244  -0.024645   0.024989   0.027461  -0.062071   0.208736
     27      -0.034042   0.142884   0.023100   0.104023   0.017095  -0.049388
     28       0.055373  -0.334347  -0.089481  -0.299838   0.056442   0.055879
     29      -0.047644   0.235915   0.041082   0.194924   0.052557  -0.118576
     30       0.000534  -0.027467  -0.010381  -0.034854  -0.000250   0.014145
     31       0.000103  -0.012975  -0.004593  -0.007211   0.009216  -0.005689
     32       0.000024   0.016048   0.004119   0.025243   0.008527  -0.020209
     33      -0.079097   0.384358   0.086679   0.309575  -0.024483  -0.077078
     34      -0.056472   0.236005   0.060287   0.176928  -0.041369  -0.006647
     35       0.034099  -0.233440  -0.044283  -0.223780  -0.037537   0.125690
     36       0.224416  -0.316529   0.006295   0.084184  -0.112039  -0.101147
     37       0.011670   0.017863   0.062322   0.004820  -0.278471   0.338061
     38      -0.026424   0.083851   0.044482  -0.015864  -0.199656   0.307976
     39      -0.003747   0.011207  -0.000646   0.002960   0.003302  -0.004061
     40      -0.006953   0.000022  -0.003210  -0.002189   0.013085  -0.016012
     41       0.002263   0.004107  -0.005967  -0.010035   0.005489   0.014417
     42      -0.059365   0.076740  -0.003058  -0.069174  -0.076700  -0.137957
     43      -0.131298   0.173415   0.009600  -0.106369  -0.122338  -0.030018
     44       0.123813  -0.200760  -0.046984   0.009621   0.076730  -0.412661
     45       0.382777  -0.139367   0.026958   0.371389  -0.083139   0.078856
     46       0.082848   0.024419   0.134943  -0.112573  -0.093348  -0.082108
     47      -0.016983   0.030623   0.074042  -0.120802  -0.038715  -0.057977
     48      -0.003530  -0.009500   0.006308   0.008538  -0.000023   0.000194
     49      -0.010707   0.004786  -0.011033  -0.007346  -0.002305   0.004296
     50       0.001064  -0.005748   0.006538  -0.001607  -0.007792  -0.001814
     51      -0.269311   0.135946  -0.039916  -0.304745  -0.009453  -0.038698
     52       0.285779  -0.176914   0.028085   0.383404   0.055364   0.055972
     53      -0.193727   0.017552  -0.068669  -0.044167   0.161955   0.014619
     54       0.003747   0.042524  -0.062727   0.039421   0.363425   0.405555
     55      -0.003694  -0.010734  -0.146367  -0.007955   0.337296  -0.285997
     56       0.007518  -0.006496   0.067162  -0.007118  -0.196231   0.002524
     57       0.002999  -0.002634   0.004326  -0.004704   0.006437  -0.007539
     58       0.007769   0.008947  -0.010481   0.006098   0.000458   0.021523
     59       0.005658  -0.002293   0.009168   0.000959   0.005103   0.020306
     60      -0.000742  -0.027518   0.044727  -0.024688  -0.191138  -0.222642
     61      -0.050277  -0.070512   0.343020  -0.043788  -0.480011  -0.053837
     62       0.016318  -0.022389  -0.033022  -0.019492  -0.185492  -0.353269
     63      -0.134316   0.001660  -0.484219   0.077535  -0.246703   0.007561
     64      -0.323084  -0.237100   0.037723   0.211906   0.011297   0.005466
     65      -0.440826  -0.320641  -0.008862   0.301456  -0.012848   0.012941
     66      -0.010248   0.014098  -0.006099  -0.009529   0.009925  -0.003768
     67       0.012494   0.012301   0.004259  -0.015217   0.000426   0.000506
     68       0.007105   0.006457  -0.009860  -0.003137  -0.002660   0.005626
     69      -0.047964  -0.026740   0.121386  -0.001592   0.055562  -0.006443
     70       0.045916   0.085797  -0.432827   0.013337  -0.179158   0.011296
     71       0.405384   0.255559   0.107902  -0.222792   0.132921   0.010652
     72       0.004252  -0.019735   0.090871  -0.018159  -0.065170  -0.076109
     73       0.114643   0.039615  -0.037052  -0.024436  -0.095699  -0.042725
     74      -0.004265  -0.001855   0.000715   0.003616   0.015603   0.009872
     75       0.008516   0.006887  -0.028501   0.003002  -0.007755   0.010354
     76      -0.011315  -0.005377   0.003598   0.002761   0.016432   0.005486
     77      -0.003973  -0.001682   0.000405   0.003778   0.015833   0.010738
     78      -0.166606  -0.108504   0.511628  -0.054298   0.208456  -0.040212
     79      -0.009103   0.007107  -0.077365   0.015510   0.012409   0.028671
     80       0.096927   0.028898  -0.004911  -0.024061  -0.092889  -0.044504
                 36         37         38         39         40         41    
      0       0.038594   0.031799  -0.217860   0.141316  -0.143069  -0.393215
[...]
     69       0.009881   0.053764  -0.009417  -0.003210  -0.121413   0.207271
     70       0.004586   0.005614   0.002709  -0.004395  -0.048454   0.083464
     71       0.000213   0.007024  -0.001305   0.003302  -0.002928  -0.002172
     72       0.000890  -0.002545   0.000192  -0.006730  -0.000004  -0.001059
     73       0.010855  -0.024418   0.004205  -0.007281   0.004010  -0.005310
     74      -0.004525   0.013064  -0.000902   0.021764  -0.003484  -0.002241
     75       0.002943  -0.007180   0.001651  -0.000802   0.001353  -0.002098
     76       0.019965  -0.048022   0.010898  -0.009654   0.008968  -0.015607
     77       0.007160  -0.017297   0.003740  -0.004612   0.003356  -0.004815
     78      -0.049262   0.117295  -0.026913   0.017302  -0.021361   0.033292
     79      -0.322506   0.778362  -0.179241   0.152553  -0.146068   0.259740
     80      -0.107521   0.261535  -0.057962   0.055819  -0.050880   0.080621
                 78         79         80    
      0       0.001984  -0.000421  -0.000003
      1       0.003023  -0.000682  -0.000014
      2       0.002236  -0.000188  -0.000008
      3       0.000576  -0.000291  -0.000004
      4       0.004059  -0.001939  -0.000004
      5       0.001892  -0.001027  -0.000004
      6      -0.011919   0.005267   0.000013
      7      -0.072442   0.036580   0.000033
      8      -0.033291   0.016117   0.000005
      9      -0.003236  -0.000210   0.000200
     10       0.003725   0.000074  -0.000118
     11      -0.001694  -0.000132   0.000105
     12      -0.000491   0.000014  -0.000027
     13       0.000431  -0.000020   0.000021
     14       0.000991  -0.000006   0.000012
     15       0.010784  -0.000176   0.000163
     16      -0.013320   0.000376  -0.000290
     17      -0.017488   0.000112  -0.000363
     18      -0.002351   0.000056  -0.000373
     19       0.002101  -0.000081   0.000432
     20       0.001057  -0.000034   0.000333
     21       0.000255  -0.000001   0.000094
     22       0.000087  -0.000051   0.000079
     23      -0.000014   0.000017  -0.000081
     24      -0.000023  -0.000022  -0.000602
     25      -0.004634   0.000616  -0.002211
     26       0.001036  -0.000275   0.001917
     27       0.047859  -0.053100   0.000038
     28       0.003047   0.011492  -0.000021
     29      -0.020665   0.010939   0.000003
     30      -0.004698  -0.037512   0.000045
     31       0.002604   0.039811  -0.000050
     32      -0.001126  -0.024422   0.000024
     33       0.032877   0.647994  -0.000768
     34      -0.037954  -0.650653   0.000779
     35       0.030594   0.381009  -0.000462
     36       0.153478  -0.010754  -0.000021
     37      -0.545322   0.034847   0.000233
     38       0.667620  -0.042873  -0.000362
     39       0.003910   0.000250  -0.000012
     40       0.022983  -0.001718  -0.000015
     41      -0.043520   0.002485   0.000012
     42      -0.227048   0.006766   0.000122
     43       0.182691  -0.005763  -0.000074
     44       0.041508  -0.000574   0.000002
     45       0.009854  -0.000042   0.000542
     46      -0.053507   0.000390  -0.002720
     47       0.095802  -0.000570   0.004789
     48      -0.014849   0.000223  -0.000115
     49      -0.007789   0.000142   0.000095
     50      -0.002548  -0.000005  -0.000262
     51       0.232304  -0.003850   0.001305
     52       0.182862  -0.002391   0.000980
     53      -0.053519   0.000482  -0.000730
     54      -0.034824   0.000810   0.000508
     55      -0.047859   0.001601  -0.000840
     56      -0.143396   0.003579  -0.002705
     57       0.003059  -0.000051   0.000908
     58       0.002522  -0.000094  -0.000088
     59       0.007680  -0.000158  -0.000473
     60      -0.015287   0.000599  -0.014770
     61       0.003914  -0.000075   0.002251
     62       0.011331  -0.000541   0.011617
     63       0.005502  -0.000015   0.000252
     64       0.044144   0.000047   0.004883
     65      -0.032823  -0.000051  -0.003207
     66       0.000439  -0.000000   0.000010
     67      -0.002417   0.000003  -0.000397
     68       0.002019  -0.000005   0.000108
     69      -0.013443  -0.000085  -0.000396
     70      -0.005641  -0.000012   0.000302
     71      -0.000009  -0.000014   0.000683
     72       0.000166   0.000025  -0.000008
     73       0.000084  -0.000025  -0.027251
     74       0.001452  -0.001191  -0.996605
     75       0.000136   0.000016  -0.000231
     76       0.001029  -0.000003   0.000262
     77       0.000331   0.000072   0.060462
     78      -0.001560   0.000023   0.003188
     79      -0.018068   0.000189   0.025201
     80      -0.005435   0.000025   0.035879


-----------
IR SPECTRUM
-----------

 Mode   freq       eps      Int      T**2         TX        TY        TZ
       cm**-1   L/(mol*cm) km/mol    a.u.
----------------------------------------------------------------------------
  6:     72.19   0.000634    3.20  0.002740  (-0.041774  0.030286  0.008791)
  7:     74.43   0.000163    0.82  0.000682  (-0.020756  0.007220 -0.014100)
  8:     92.68   0.000310    1.57  0.001043  ( 0.011725  0.019882 -0.022599)
  9:    107.10   0.002108   10.65  0.006143  ( 0.066307 -0.008065 -0.040998)
 10:    139.15   0.000915    4.62  0.002052  ( 0.020984 -0.020721 -0.034381)
 11:    147.11   0.001162    5.87  0.002466  ( 0.042712 -0.014358  0.020865)
 12:    164.47   0.001430    7.22  0.002713  ( 0.034139  0.015547 -0.036129)
 13:    178.08   0.011036   55.77  0.019339  (-0.115327  0.076582  0.013182)
 14:    191.45   0.000893    4.51  0.001456  (-0.032013 -0.020294  0.004400)
 15:    195.51   0.000808    4.08  0.001289  ( 0.002718  0.029069 -0.020893)
 16:    217.91   0.001160    5.86  0.001661  (-0.020212 -0.033283  0.012024)
 17:    232.85   0.009783   49.44  0.013112  ( 0.088170 -0.044845 -0.057678)
 18:    241.21   0.000824    4.17  0.001067  (-0.017098  0.027371 -0.005004)
 19:    258.11   0.000208    1.05  0.000251  (-0.003769  0.003214 -0.015062)
 20:    264.49   0.004575   23.12  0.005398  ( 0.062563 -0.038467 -0.002023)
 21:    268.71   0.001038    5.24  0.001205  ( 0.030120 -0.001676 -0.017183)
 22:    292.62   0.003642   18.40  0.003884  ( 0.011603  0.011707  0.060100)
 23:    323.87   0.000728    3.68  0.000702  (-0.015397  0.021088  0.004454)
 24:    341.95   0.012215   61.73  0.011148  (-0.047751 -0.092197  0.019167)
 25:    350.53   0.003970   20.06  0.003534  ( 0.031208  0.046735  0.019397)
 26:    353.23   0.012213   61.72  0.010789  ( 0.098163  0.003120  0.033818)
 27:    357.35   0.022158  111.98  0.019350  ( 0.035216  0.079986  0.108223)
 28:    373.89   0.001604    8.11  0.001339  ( 0.007480 -0.026286 -0.024328)
 29:    410.39   0.005951   30.07  0.004525  ( 0.022085  0.061648 -0.015399)
 30:    460.58   0.001139    5.76  0.000772  (-0.026080 -0.001655  0.009417)
 31:    498.51   0.002273   11.49  0.001423  (-0.008315 -0.026186 -0.025852)
 32:    511.80   0.000779    3.94  0.000475  ( 0.021372 -0.003917 -0.001632)
 33:    517.22   0.005224   26.40  0.003152  ( 0.041968  0.034359  0.014488)
 34:    545.38   0.028405  143.55  0.016253  (-0.017785 -0.120042 -0.039074)
 35:    565.81   0.012013   60.71  0.006625  (-0.021509  0.043294 -0.065487)
 36:    585.29   0.009111   46.04  0.004858  (-0.051278  0.046988  0.004526)
 37:    598.23   0.006390   32.29  0.003333  ( 0.020619 -0.024533 -0.048026)
 38:    609.85   0.020532  103.76  0.010506  ( 0.008794  0.063215 -0.080204)
 39:    619.82   0.032172  162.58  0.016198  (-0.062600  0.081935 -0.074603)
 40:    659.99   0.026891  135.90  0.012715  (-0.091212  0.041672  0.051562)
 41:    678.01   0.003135   15.84  0.001443  ( 0.003938  0.037380 -0.005490)
 42:    704.63   0.005701   28.81  0.002525  ( 0.028884 -0.038685 -0.013921)
 43:    727.24   0.041594  210.20  0.017848  ( 0.061303 -0.049839  0.107732)
 44:    742.42   0.013132   66.36  0.005520  (-0.043435 -0.058799 -0.013266)
 45:    745.66   0.039744  200.85  0.016633  ( 0.107734  0.002805 -0.070843)
 46:    754.37   0.068630  346.83  0.028390  ( 0.166134 -0.025802 -0.011135)
 47:    780.49   0.048482  245.01  0.019385  ( 0.027360  0.126547  0.051204)
 48:    802.41   0.079661  402.57  0.030981  (-0.062018  0.164631  0.005576)
 49:    834.93   0.075613  382.12  0.028261  ( 0.038977  0.146073  0.073517)
 50:    883.58   0.067548  341.36  0.023857  (-0.127658  0.085907 -0.013428)
 51:    908.67   0.028352  143.28  0.009737  (-0.024083 -0.015584 -0.094415)
 52:    943.46   0.158925  803.14  0.052567  (-0.116590 -0.164728 -0.108804)
 53:    963.90   0.037340  188.70  0.012089  (-0.075742 -0.030074  0.073808)
 54:   1501.04   0.079601  402.27  0.016549  ( 0.062381  0.037399 -0.106108)
 55:   1508.89   0.003790   19.15  0.000784  ( 0.000642  0.027951  0.001453)
 56:   1513.17   0.010999   55.58  0.002268  ( 0.008941  0.015545  0.044122)
 57:   1526.13   0.019665   99.38  0.004021  (-0.009419 -0.059987 -0.018277)
 58:   1529.59   0.063356  320.18  0.012926  ( 0.014062  0.012752 -0.112096)
 59:   1533.93   0.104074  525.95  0.021173  (-0.089813  0.020146 -0.112696)
 60:   1538.59   0.031419  158.78  0.006373  (-0.069990 -0.034354  0.017141)
 61:   1543.96   0.054851  277.19  0.011086  (-0.086069  0.022493 -0.056326)
 62:   1570.69   0.005668   28.64  0.001126  ( 0.022742 -0.021409  0.012271)
 63:   2922.76   0.238084  1203.18  0.025420  (-0.042942 -0.048668  0.145628)
 64:   3014.56   0.069619  351.82  0.007207  ( 0.056448  0.050547  0.038281)
 65:   3022.16   0.035515  179.48  0.003667  (-0.010267  0.059053  0.008639)
 66:   3042.23   0.158670  801.85  0.016276  ( 0.046076 -0.115998 -0.026407)
 67:   3100.85   0.188214  951.16  0.018941  (-0.062114 -0.105112  0.063519)
 68:   3215.83   0.171658  867.49  0.016658  ( 0.038323  0.034764  0.118239)
 69:   3256.11   0.110587  558.86  0.010599  (-0.076506  0.068333  0.008721)
 70:   3284.50   0.072301  365.38  0.006869  (-0.011316 -0.061741 -0.054124)
 71:   3308.75   0.019012   96.08  0.001793  ( 0.015582  0.037243  0.012775)
 72:   3335.01   0.058041  293.31  0.005431  ( 0.052625  0.001747 -0.051561)
 73:   3354.29   0.077440  391.35  0.007205  ( 0.030650  0.069090  0.038622)
 74:   3369.93   0.178694  903.05  0.016547  (-0.009461 -0.097883  0.082927)
 75:   3410.49   0.056741  286.75  0.005192  (-0.063982 -0.023187  0.023675)
 76:   3422.02   0.044005  222.39  0.004013  (-0.054476 -0.030848 -0.009682)
 77:   3456.87   0.000999    5.05  0.000090  (-0.001238  0.009000 -0.002761)
 78:   3489.48   0.051302  259.26  0.004588  ( 0.016300 -0.046525  0.046451)
 79:   3649.85   0.004329   21.88  0.000370  ( 0.016933 -0.007393  0.005361)
 80:   3675.49   0.001976    9.99  0.000168  (-0.000351 -0.000300 -0.012945)

* The epsilon (eps) is given for a Dirac delta lineshape.
** The dipole moment derivative (T) already includes vibrational overlap.

The first frequency considered to be a vibration is 6
The total number of vibrations considered is 75


--------------------------
THERMOCHEMISTRY AT 298.15K
--------------------------

Temperature         ... 298.15 K
Pressure            ... 1.00 atm
Total Mass          ... 162.14 AMU

Throughout the following assumptions are being made:
  (1) The electronic state is orbitally nondegenerate
  (2) There are no thermally accessible electronically excited states
  (3) Hindered rotations indicated by low frequency modes are not
      treated as such but are treated as vibrations and this may
      cause some error
  (4) All equations used are the standard statistical mechanics
      equations for an ideal gas
  (5) All vibrations are strictly harmonic

freq.      72.19  E(vib)   ...       0.50 
freq.      74.43  E(vib)   ...       0.49 
freq.      92.68  E(vib)   ...       0.47 
freq.     107.10  E(vib)   ...       0.45 
freq.     139.15  E(vib)   ...       0.42 
freq.     147.11  E(vib)   ...       0.41 
freq.     164.47  E(vib)   ...       0.39 
freq.     178.08  E(vib)   ...       0.37 
freq.     191.45  E(vib)   ...       0.36 
freq.     195.51  E(vib)   ...       0.36 
freq.     217.91  E(vib)   ...       0.33 
freq.     232.85  E(vib)   ...       0.32 
freq.     241.21  E(vib)   ...       0.31 
freq.     258.11  E(vib)   ...       0.30 
freq.     264.49  E(vib)   ...       0.29 
freq.     268.71  E(vib)   ...       0.29 
freq.     292.62  E(vib)   ...       0.27 
freq.     323.87  E(vib)   ...       0.25 
freq.     341.95  E(vib)   ...       0.23 
freq.     350.53  E(vib)   ...       0.23 
freq.     353.23  E(vib)   ...       0.22 
freq.     357.35  E(vib)   ...       0.22 
freq.     373.89  E(vib)   ...       0.21 
freq.     410.39  E(vib)   ...       0.19 
freq.     460.58  E(vib)   ...       0.16 
freq.     498.51  E(vib)   ...       0.14 
freq.     511.80  E(vib)   ...       0.14 
freq.     517.22  E(vib)   ...       0.13 
freq.     545.38  E(vib)   ...       0.12 
freq.     565.81  E(vib)   ...       0.11 
freq.     585.29  E(vib)   ...       0.11 
freq.     598.23  E(vib)   ...       0.10 
freq.     609.85  E(vib)   ...       0.10 
freq.     619.82  E(vib)   ...       0.09 
freq.     659.99  E(vib)   ...       0.08 
freq.     678.01  E(vib)   ...       0.08 
freq.     704.63  E(vib)   ...       0.07 
freq.     727.24  E(vib)   ...       0.06 
freq.     742.42  E(vib)   ...       0.06 
freq.     745.66  E(vib)   ...       0.06 
freq.     754.37  E(vib)   ...       0.06 
freq.     780.49  E(vib)   ...       0.05 
freq.     802.41  E(vib)   ...       0.05 
freq.     834.93  E(vib)   ...       0.04 
freq.     883.58  E(vib)   ...       0.04 
freq.     908.67  E(vib)   ...       0.03 
freq.     943.46  E(vib)   ...       0.03 
freq.     963.90  E(vib)   ...       0.03 
freq.    1501.04  E(vib)   ...       0.00 
freq.    1508.89  E(vib)   ...       0.00 
freq.    1513.17  E(vib)   ...       0.00 
freq.    1526.13  E(vib)   ...       0.00 
freq.    1529.59  E(vib)   ...       0.00 
freq.    1533.93  E(vib)   ...       0.00 
freq.    1538.59  E(vib)   ...       0.00 
freq.    1543.96  E(vib)   ...       0.00 
freq.    1570.69  E(vib)   ...       0.00 
freq.    2922.76  E(vib)   ...       0.00 
freq.    3014.56  E(vib)   ...       0.00 
freq.    3022.16  E(vib)   ...       0.00 
freq.    3042.23  E(vib)   ...       0.00 
freq.    3100.85  E(vib)   ...       0.00 
freq.    3215.83  E(vib)   ...       0.00 
freq.    3256.11  E(vib)   ...       0.00 
freq.    3284.50  E(vib)   ...       0.00 
freq.    3308.75  E(vib)   ...       0.00 
freq.    3335.01  E(vib)   ...       0.00 
freq.    3354.29  E(vib)   ...       0.00 
freq.    3369.93  E(vib)   ...       0.00 
freq.    3410.49  E(vib)   ...       0.00 
freq.    3422.02  E(vib)   ...       0.00 
freq.    3456.87  E(vib)   ...       0.00 
freq.    3489.48  E(vib)   ...       0.00 
freq.    3649.85  E(vib)   ...       0.00 
freq.    3675.49  E(vib)   ...       0.00 

------------
INNER ENERGY
------------

The inner energy is: U= E(el) + E(ZPE) + E(vib) + E(rot) + E(trans)
    E(el)   - is the total energy from the electronic structure calculation
              = E(kin-el) + E(nuc-el) + E(el-el) + E(nuc-nuc)
    E(ZPE)  - the the zero temperature vibrational energy from the frequency calculation
    E(vib)  - the the finite temperature correction to E(ZPE) due to population
              of excited vibrational states
    E(rot)  - is the rotational thermal energy
    E(trans)- is the translational thermal energy

Summary of contributions to the inner energy U:
Electronic energy                ...  -1018.34668848 Eh
Zero point energy                ...      0.21731135 Eh     136.36 kcal/mol
Thermal vibrational correction   ...      0.01568547 Eh       9.84 kcal/mol
Thermal rotational correction    ...      0.00141627 Eh       0.89 kcal/mol
Thermal translational correction ...      0.00141627 Eh       0.89 kcal/mol
-----------------------------------------------------------------------
Total thermal energy                  -1018.11085912 Eh


Summary of corrections to the electronic energy:
(perhaps to be used in another calculation)
Total thermal correction                  0.01851801 Eh      11.62 kcal/mol
Non-thermal (ZPE) correction              0.21731135 Eh     136.36 kcal/mol
-----------------------------------------------------------------------
Total correction                          0.23582937 Eh     147.98 kcal/mol


--------
ENTHALPY
--------

The enthalpy is H = U + kB*T
                kB is Boltzmann's constant
Total free energy                 ...  -1018.11085912 Eh 
Thermal Enthalpy correction       ...      0.00094421 Eh       0.59 kcal/mol
-----------------------------------------------------------------------
Total Enthalpy                    ...  -1018.10991491 Eh


Note: Only C1 symmetry has been detected, increase convergence thresholds 
      if your molecule has a higher symmetry. Symmetry factor of 1.0 is   
      used for the rotational entropy correction. 
 

Note: Rotational entropy computed according to Herzberg 
Infrared and Raman Spectra, Chapter V,1, Van Nostrand Reinhold, 1945 
Point Group:  C1, Symmetry Number:   1  
Rotational constants in cm-1:     0.034280     0.014935     0.012364 

Vibrational entropy computed according to the QRRHO of S. Grimme
Chem.Eur.J. 2012 18 9955


-------
ENTROPY
-------

The entropy contributions are T*S = T*(S(el)+S(vib)+S(rot)+S(trans))
     S(el)   - electronic entropy
     S(vib)  - vibrational entropy
     S(rot)  - rotational entropy
     S(trans)- translational entropy
The entropies will be listed as multiplied by the temperature to get
units of energy

Electronic entropy                ...      0.00000000 Eh      0.00 kcal/mol
Vibrational entropy               ...      0.02680968 Eh     16.82 kcal/mol
Rotational entropy                ...      0.01516182 Eh      9.51 kcal/mol
Translational entropy             ...      0.01955567 Eh     12.27 kcal/mol
-----------------------------------------------------------------------
Final entropy term                ...      0.06152716 Eh     38.61 kcal/mol

In case the symmetry of your molecule has not been determined correctly
or in case you have a reason to use a different symmetry number we print 
out the resulting rotational entropy values for sn=1,12 :
 --------------------------------------------------------
|  sn= 1 | S(rot)=       0.01516182 Eh      9.51 kcal/mol|
|  sn= 2 | S(rot)=       0.01450736 Eh      9.10 kcal/mol|
|  sn= 3 | S(rot)=       0.01412453 Eh      8.86 kcal/mol|
|  sn= 4 | S(rot)=       0.01385291 Eh      8.69 kcal/mol|
|  sn= 5 | S(rot)=       0.01364222 Eh      8.56 kcal/mol|
|  sn= 6 | S(rot)=       0.01347007 Eh      8.45 kcal/mol|
|  sn= 7 | S(rot)=       0.01332453 Eh      8.36 kcal/mol|
|  sn= 8 | S(rot)=       0.01319845 Eh      8.28 kcal/mol|
|  sn= 9 | S(rot)=       0.01308724 Eh      8.21 kcal/mol|
|  sn=10 | S(rot)=       0.01298776 Eh      8.15 kcal/mol|
|  sn=11 | S(rot)=       0.01289777 Eh      8.09 kcal/mol|
|  sn=12 | S(rot)=       0.01281562 Eh      8.04 kcal/mol|
 --------------------------------------------------------


-------------------
GIBBS FREE ENERGY
-------------------

The Gibbs free energy is G = H - T*S

Total enthalpy                    ...  -1018.10991491 Eh 
Total entropy correction          ...     -0.06152716 Eh    -38.61 kcal/mol
-----------------------------------------------------------------------
Final Gibbs free energy         ...  -1018.17144207 Eh

For completeness - the Gibbs free energy minus the electronic energy
G-E(el)                           ...      0.17524641 Eh    109.97 kcal/mol



Timings for individual modules:

Sum of individual times         ...      206.004 sec (=   3.433 min)
Numerical frequency calculation ...      185.821 sec (=   3.097 min)  90.2 %
XTB module                      ...       10.270 sec (=   0.171 min)   5.0 %
ONIOM_Small energy and gradient ...        0.266 sec (=   0.004 min)   0.1 %
ONIOM_Large energy and gradient ...        9.647 sec (=   0.161 min)   4.7 %
                             ****ORCA TERMINATED NORMALLY****
TOTAL RUN TIME: 0 days 0 hours 3 minutes 28 seconds 37 msec
