
                                 *****************
                                 * O   R   C   A *
                                 *****************

                                            #,                                       
                                            ###                                      
                                            ####                                     
                                            #####                                    
                                            ######                                   
                                           ########,                                 
                                     ,,################,,,,,                         
                               ,,#################################,,                 
                          ,,##########################################,,             
                       ,#########################################, ''#####,          
                    ,#############################################,,   '####,        
                  ,##################################################,,,,####,       
                ,###########''''           ''''###############################       
              ,#####''   ,,,,##########,,,,          '''####'''          '####       
            ,##' ,,,,###########################,,,                        '##       
           ' ,,###''''                  '''############,,,                           
         ,,##''                                '''############,,,,        ,,,,,,###''
      ,#''                                            '''#######################'''  
     '                                                          ''''####''''         
             ,#######,   #######,   ,#######,      ##                                
            ,#'     '#,  ##    ##  ,#'     '#,    #''#        ######   ,####,        
            ##       ##  ##   ,#'  ##            #'  '#       #        #'  '#        
            ##       ##  #######   ##           ,######,      #####,   #    #        
            '#,     ,#'  ##    ##  '#,     ,#' ,#      #,         ##   #,  ,#        
             '#######'   ##     ##  '#######'  #'      '#     #####' # '####'        



                  #######################################################
                  #                        -***-                        #
                  #          Department of theory and spectroscopy      #
                  #    Directorship and core code : Frank Neese         #
                  #        Max Planck Institute fuer Kohlenforschung    #
                  #                Kaiser Wilhelm Platz 1               #
                  #                 D-45470 Muelheim/Ruhr               #
                  #                      Germany                        #
                  #                                                     #
                  #                  All rights reserved                #
                  #                        -***-                        #
                  #######################################################


                         Program Version 5.0.2 -  RELEASE  -


 With contributions from (in alphabetic order):
   Daniel Aravena         : Magnetic Suceptibility
   Michael Atanasov       : Ab Initio Ligand Field Theory (pilot matlab implementation)
   Alexander A. Auer      : GIAO ZORA, VPT2 properties, NMR spectrum
   Ute Becker             : Parallelization
   Giovanni Bistoni       : ED, misc. LED, open-shell LED, HFLD
   Martin Brehm           : Molecular dynamics
   Dmytro Bykov           : SCF Hessian
   Vijay G. Chilkuri      : MRCI spin determinant printing, contributions to CSF-ICE
   Dipayan Datta          : RHF DLPNO-CCSD density
   Achintya Kumar Dutta   : EOM-CC, STEOM-CC
   Dmitry Ganyushin       : Spin-Orbit,Spin-Spin,Magnetic field MRCI
   Miquel Garcia          : C-PCM and meta-GGA Hessian, CC/C-PCM, Gaussian charge scheme
   Yang Guo               : DLPNO-NEVPT2, F12-NEVPT2, CIM, IAO-localization
   Andreas Hansen         : Spin unrestricted coupled pair/coupled cluster methods
   Benjamin Helmich-Paris : MC-RPA, TRAH-SCF, COSX integrals
   Lee Huntington         : MR-EOM, pCC
   Robert Izsak           : Overlap fitted RIJCOSX, COSX-SCS-MP3, EOM
   Marcus Kettner         : VPT2
   Christian Kollmar      : KDIIS, OOCD, Brueckner-CCSD(T), CCSD density, CASPT2, CASPT2-K
   Simone Kossmann        : Meta GGA functionals, TD-DFT gradient, OOMP2, MP2 Hessian
   Martin Krupicka        : Initial AUTO-CI
   Lucas Lang             : DCDCAS
   Marvin Lechner         : AUTO-CI (C++ implementation), FIC-MRCC
   Dagmar Lenk            : GEPOL surface, SMD
   Dimitrios Liakos       : Extrapolation schemes; Compound Job, initial MDCI parallelization
   Dimitrios Manganas     : Further ROCIS development; embedding schemes
   Dimitrios Pantazis     : SARC Basis sets
   Anastasios Papadopoulos: AUTO-CI, single reference methods and gradients
   Taras Petrenko         : DFT Hessian,TD-DFT gradient, ASA, ECA, R-Raman, ABS, FL, XAS/XES, NRVS
   Peter Pinski           : DLPNO-MP2, DLPNO-MP2 Gradient
   Christoph Reimann      : Effective Core Potentials
   Marius Retegan         : Local ZFS, SOC
   Christoph Riplinger    : Optimizer, TS searches, QM/MM, DLPNO-CCSD(T), (RO)-DLPNO pert. Triples
   Tobias Risthaus        : Range-separated hybrids, TD-DFT gradient, RPA, STAB
   Michael Roemelt        : Original ROCIS implementation
   Masaaki Saitow         : Open-shell DLPNO-CCSD energy and density
   Barbara Sandhoefer     : DKH picture change effects
   Avijit Sen             : IP-ROCIS
   Kantharuban Sivalingam : CASSCF convergence, NEVPT2, FIC-MRCI
   Bernardo de Souza      : ESD, SOC TD-DFT
   Georgi Stoychev        : AutoAux, RI-MP2 NMR, DLPNO-MP2 response
   Willem Van den Heuvel  : Paramagnetic NMR
   Boris Wezisla          : Elementary symmetry handling
   Frank Wennmohs         : Technical directorship


 We gratefully acknowledge several colleagues who have allowed us to
 interface, adapt or use parts of their codes:
   Stefan Grimme, W. Hujo, H. Kruse, P. Pracht,  : VdW corrections, initial TS optimization,
                  C. Bannwarth, S. Ehlert          DFT functionals, gCP, sTDA/sTD-DF
   Ed Valeev, F. Pavosevic, A. Kumar             : LibInt (2-el integral package), F12 methods
   Garnet Chan, S. Sharma, J. Yang, R. Olivares  : DMRG
   Ulf Ekstrom                                   : XCFun DFT Library
   Mihaly Kallay                                 : mrcc  (arbitrary order and MRCC methods)
   Jiri Pittner, Ondrej Demel                    : Mk-CCSD
   Frank Weinhold                                : gennbo (NPA and NBO analysis)
   Christopher J. Cramer and Donald G. Truhlar   : smd solvation model
   Lars Goerigk                                  : TD-DFT with DH, B97 family of functionals
   V. Asgeirsson, H. Jonsson                     : NEB implementation
   FAccTs GmbH                                   : IRC, NEB, NEB-TS, DLPNO-Multilevel, CI-OPT
                                                   MM, QMMM, 2- and 3-layer-ONIOM, Crystal-QMMM,
                                                   LR-CPCM, SF, NACMEs, symmetry and pop. for TD-DFT,
                                                   nearIR, NL-DFT gradient (VV10), updates on ESD,
                                                   ML-optimized integration grids
   S Lehtola, MJT Oliveira, MAL Marques          : LibXC Library
   Liviu Ungur et al                             : ANISO software


 Your calculation uses the libint2 library for the computation of 2-el integrals
 For citations please refer to: http://libint.valeyev.net

 Your ORCA version has been built with support for libXC version: 5.1.0
 For citations please refer to: https://tddft.org/programs/libxc/

 This ORCA versions uses:
   CBLAS   interface :  Fast vector & matrix operations
   LAPACKE interface :  Fast linear algebra routines
   SCALAPACK package :  Parallel linear algebra routines
   Shared memory     :  Shared parallel matrices
   BLAS/LAPACK       :  OpenBLAS 0.3.15  USE64BITINT DYNAMIC_ARCH NO_AFFINITY Haswell SINGLE_THREADED
        Core in use  :  Haswell
   Copyright (c) 2011-2014, The OpenBLAS Project




***************************************
The coordinates will be read from file: ch3oh.xyz
***************************************


================================================================================

----- Orbital basis set information -----
Your calculation utilizes the basis: aug-cc-pVTZ 
    H, B-Ne : Obtained from the ccRepo (grant-hill.group.shef.ac.uk/ccrepo) Feb. 2017
              R. A. Kendall, T. H. Dunning, Jr., R. J. Harrison, J. Chem. Phys. 96, 6796 (1992)
         He : Obtained from the ccRepo (grant-hill.group.shef.ac.uk/ccrepo) Feb. 2017
              D. E. Woon, T. H. Dunning, Jr., J. Chem. Phys. 100, 2975 (1994)
  Li-Be, Na : Obtained from the ccRepo (grant-hill.group.shef.ac.uk/ccrepo) Feb. 2017
              B. P. Prascher, D. E. Woon, K. A. Peterson, T. H. Dunning, Jr., A. K. Wilson, Theor. Chem. Acc. 128, 69 (2011)
         Mg : Obtained from the Peterson Research Group Website (tyr0.chem.wsu.edu/~kipeters) Feb. 2017
              B. P. Prascher, D. E. Woon, K. A. Peterson, T. H. Dunning, Jr., A. K. Wilson, Theor. Chem. Acc. 128, 69 (2011)
      Al-Ar : Obtained from the ccRepo (grant-hill.group.shef.ac.uk/ccrepo) Feb. 2017
              D. E. Woon, T. H. Dunning, Jr., J. Chem. Phys. 98, 1358 (1993)
      Sc-Zn : Obtained from the ccRepo (grant-hill.group.shef.ac.uk/ccrepo) Feb. 2017
              N. B. Balabanov, K. A. Peterson, J. Chem. Phys. 123, 064107 (2005)
              N. B. Balabanov, K. A. Peterson, J. Chem. Phys. 125, 074110 (2006)
      Ga-Kr : Obtained from the ccRepo (grant-hill.group.shef.ac.uk/ccrepo) Feb. 2017
              A. K. Wilson, D. E. Woon, K. A. Peterson, T. H. Dunning, Jr., J. Chem. Phys. 110, 7667 (1999)
     Ag, Au : Obtained from the Peterson Research Group Website (tyr0.chem.wsu.edu/~kipeters) Feb. 2017
              K. A. Peterson, C. Puzzarini, Theor. Chem. Acc. 114, 283 (2005)

----- AuxC basis set information -----
Your calculation utilizes the auxiliary basis: aug-cc-pVTZ/C 
  H-He, B-F, Al-Ar, Ga-Kr : Obtained from the EMSL Basis Set Exchange (bse.pnl.gov) Feb. 2017
                            F. Weigend, A. Kohn, C. Hattig, J. Chem. Phys. 116, 3175 (2002)
                   Be, Mg : Obtained from the TURBOMOLE 7.0 basis set library
                            C. Haettig, Phys. Chem. Chem. Phys. 7, 59 (2005)
                       Ne : Obtained from the EMSL Basis Set Exchange (bse.pnl.gov) Feb. 2017
                            C. Haettig, Phys. Chem. Chem. Phys. 7, 59 (2005)
                            F. Weigend, A. Kohn, C. Hattig, J. Chem. Phys. 116, 3175 (2002)
                    Sc-Zn : Obtained from the EMSL Basis Set Exchange (bse.pnl.gov) Feb. 2017
                            J. G. Hill, J. A. Platts, J. Chem. Phys. 128, 044104 (2008)

================================================================================
                                        WARNINGS
                       Please study these warnings very carefully!
================================================================================


WARNING: Post HF methods need fully converged wavefunctions
  ===> : Setting SCFConvForced true
         You can overwrite this default with %scf ConvForced false 


WARNING: MDCI localization with Augmented Hessian Foster-Boys
  ===> : Switching off randomization!

INFO   : the flag for use of the SHARK integral package has been found!

================================================================================
                                       INPUT FILE
================================================================================
NAME = ch3oh.inp
|  1> ! DLPNO-CCSD(T) aug-cc-pVTZ aug-cc-pVTZ/C TightPNO
|  2> %pal
|  3> nprocs 6
|  4> end
|  5> *xyzfile 0 1 ch3oh.xyz
|  6> 
|  7> 
|  8>                          ****END OF INPUT****
================================================================================

                       ****************************
                       * Single Point Calculation *
                       ****************************

---------------------------------
CARTESIAN COORDINATES (ANGSTROEM)
---------------------------------
  C     -0.046524    0.661615   -0.000000
  O     -0.041765   -0.758918   -0.000000
  H     -1.088398    0.972314    0.000000
  H      0.875376   -1.051750    0.000000
  H      0.433439    1.082327    0.889362
  H      0.433439    1.082327   -0.889362

----------------------------
CARTESIAN COORDINATES (A.U.)
----------------------------
  NO LB      ZA    FRAG     MASS         X           Y           Z
   0 C     6.0000    0    12.011   -0.087917    1.250272   -0.000000
   1 O     8.0000    0    15.999   -0.078924   -1.434146   -0.000000
   2 H     1.0000    0     1.008   -2.056774    1.837408    0.000000
   3 H     1.0000    0     1.008    1.654220   -1.987519    0.000000
   4 H     1.0000    0     1.008    0.819081    2.045302    1.680651
   5 H     1.0000    0     1.008    0.819081    2.045302   -1.680651

--------------------------------
INTERNAL COORDINATES (ANGSTROEM)
--------------------------------
 C      0   0   0     0.000000000000     0.00000000     0.00000000
 O      1   0   0     1.420540975918     0.00000000     0.00000000
 H      1   2   0     1.087214959963   106.79712793     0.00000000
 H      2   1   3     0.962755109889   107.89962887   180.00000000
 H      1   2   3     1.094681574323   112.51048226   118.42456787
 H      1   2   3     1.094681575891   112.51048251   241.57543206

---------------------------
INTERNAL COORDINATES (A.U.)
---------------------------
 C      0   0   0     0.000000000000     0.00000000     0.00000000
 O      1   0   0     2.684433406498     0.00000000     0.00000000
 H      1   2   0     2.054538523033   106.79712793     0.00000000
 H      2   1   3     1.819343491723   107.89962887   180.00000000
 H      1   2   3     2.068648379321   112.51048226   118.42456787
 H      1   2   3     2.068648382283   112.51048251   241.57543206

---------------------
BASIS SET INFORMATION
---------------------
There are 3 groups of distinct atoms

 Group   1 Type C   : 19s6p3d2f contracted to 5s4p3d2f pattern {88111/3111/111/11}
 Group   2 Type O   : 19s6p3d2f contracted to 5s4p3d2f pattern {88111/3111/111/11}
 Group   3 Type H   : 6s3p2d contracted to 4s3p2d pattern {3111/111/11}

Atom   0C    basis set group =>   1
Atom   1O    basis set group =>   2
Atom   2H    basis set group =>   3
Atom   3H    basis set group =>   3
Atom   4H    basis set group =>   3
Atom   5H    basis set group =>   3
---------------------------------
AUXILIARY/C BASIS SET INFORMATION
---------------------------------
There are 3 groups of distinct atoms

 Group   1 Type C   : 9s7p6d4f2g contracted to 9s7p6d4f2g pattern {111111111/1111111/111111/1111/11}
 Group   2 Type O   : 9s7p6d4f2g contracted to 9s7p6d4f2g pattern {111111111/1111111/111111/1111/11}
 Group   3 Type H   : 5s4p3d2f contracted to 5s4p3d2f pattern {11111/1111/111/11}

Atom   0C    basis set group =>   1
Atom   1O    basis set group =>   2
Atom   2H    basis set group =>   3
Atom   3H    basis set group =>   3
Atom   4H    basis set group =>   3
Atom   5H    basis set group =>   3


           ************************************************************
           *        Program running with 6 parallel MPI-processes     *
           *              working on a common directory               *
           ************************************************************
------------------------------------------------------------------------------
                           ORCA GTO INTEGRAL CALCULATION
------------------------------------------------------------------------------
------------------------------------------------------------------------------
                   ___                                                        
                  /   \      - P O W E R E D   B Y -                         
                 /     \                                                     
                 |  |  |   _    _      __       _____    __    __             
                 |  |  |  | |  | |    /  \     |  _  \  |  |  /  |          
                  \  \/   | |  | |   /    \    | | | |  |  | /  /          
                 / \  \   | |__| |  /  /\  \   | |_| |  |  |/  /          
                |  |  |   |  __  | /  /__\  \  |    /   |      \           
                |  |  |   | |  | | |   __   |  |    \   |  |\   \          
                \     /   | |  | | |  |  |  |  | |\  \  |  | \   \       
                 \___/    |_|  |_| |__|  |__|  |_| \__\ |__|  \__/        
                                                                              
                      - O R C A' S   B I G   F R I E N D -                    
                                      &                                       
                       - I N T E G R A L  F E E D E R -                       
                                                                              
 v1 FN, 2020, v2 2021                                                         
------------------------------------------------------------------------------


Reading SHARK input file ch3oh.SHARKINP.tmp ... ok
----------------------
SHARK INTEGRAL PACKAGE
----------------------

Number of atoms                             ...      6
Number of basis functions                   ...    196
Number of shells                            ...     76
Maximum angular momentum                    ...      3
Integral batch strategy                     ... SHARK/LIBINT Hybrid
RI-J (if used) integral strategy            ... SPLIT-RIJ (Revised 2003 algorithm where possible)
Printlevel                                  ...      1
Contraction scheme used                     ... PARTIAL GENERAL contraction
Coulomb Range Separation                    ... NOT USED
Exchange Range Separation                   ... NOT USED
Finite Nucleus Model                        ... NOT USED
Auxiliary Coulomb fitting basis             ... NOT available
Auxiliary J/K fitting basis                 ... NOT available
Auxiliary Correlation fitting basis         ... AVAILABLE
   # of basis functions in Aux-C            ...    396
   # of shells in Aux-C                     ...    112
   Maximum angular momentum in Aux-C        ...      4
Auxiliary 'external' fitting basis          ... NOT available
Integral threshold                          ...     1.000000e-10
Primitive cut-off                           ...     1.000000e-11
Primitive pair pre-selection threshold      ...     1.000000e-11

Calculating pre-screening integrals         ... done (  0.0 sec) Dimension = 76
Calculating pre-screening integrals (ORCA)  ... done (  0.1 sec) Dimension = 64
Organizing shell pair data                  ... done (  0.1 sec)
Shell pair information
Total number of shell pairs                 ...      2926
Shell pairs after pre-screening             ...      2882
Total number of primitive shell pairs       ...      3934
Primitive shell pairs kept                  ...      3731
          la=0 lb=0:    697 shell pairs
          la=1 lb=0:    760 shell pairs
          la=1 lb=1:    210 shell pairs
          la=2 lb=0:    532 shell pairs
          la=2 lb=1:    280 shell pairs
          la=2 lb=2:    105 shell pairs
          la=3 lb=0:    152 shell pairs
          la=3 lb=1:     80 shell pairs
          la=3 lb=2:     56 shell pairs
          la=3 lb=3:     10 shell pairs

Calculating one electron integrals          ... done (  0.0 sec)
Calculating RI/C V-Matrix + Cholesky decomp.... done (  0.2 sec)
Calculating Nuclear repulsion               ... done (  0.0 sec) ENN=     40.291075033469 Eh

SHARK setup successfully completed in   1.1 seconds

Maximum memory used throughout the entire GTOINT-calculation: 19.5 MB


           ************************************************************
           *        Program running with 6 parallel MPI-processes     *
           *              working on a common directory               *
           ************************************************************
-------------------------------------------------------------------------------
                                 ORCA SCF
-------------------------------------------------------------------------------

------------
SCF SETTINGS
------------
Hamiltonian:
 Ab initio Hamiltonian  Method          .... Hartree-Fock(GTOs)


General Settings:
 Integral files         IntName         .... ch3oh
 Hartree-Fock type      HFTyp           .... RHF
 Total Charge           Charge          ....    0
 Multiplicity           Mult            ....    1
 Number of Electrons    NEL             ....   18
 Basis Dimension        Dim             ....  184
 Nuclear Repulsion      ENuc            ....     40.2910750335 Eh

Convergence Acceleration:
 DIIS                   CNVDIIS         .... on
   Start iteration      DIISMaxIt       ....    12
   Startup error        DIISStart       ....  0.200000
   # of expansion vecs  DIISMaxEq       ....     5
   Bias factor          DIISBfac        ....   1.050
   Max. coefficient     DIISMaxC        ....  10.000
 Trust-Rad. Augm. Hess. CNVTRAH         .... auto
   Auto Start mean grad. ratio tolernc. ....  1.125000
   Auto Start start iteration           ....    20
   Auto Start num. interpolation iter.  ....    10
   Max. Number of Micro iterations      ....    16
   Max. Number of Macro iterations      .... Maxiter - #DIIS iter
   Number of Davidson start vectors     ....     2
   Converg. threshold I  (grad. norm)   ....   5.000e-05
   Converg. threshold II (energy diff.) ....   1.000e-06
   Grad. Scal. Fac. for Micro threshold ....   0.100
   Minimum threshold for Micro iter.    ....   0.010
   NR start threshold (gradient norm)   ....   0.001
   Initial trust radius                 ....   0.400
   Minimum AH scaling param. (alpha)    ....   1.000
   Maximum AH scaling param. (alpha)    .... 1000.000
   Orbital update algorithm             .... Taylor
   White noise on init. David. guess    .... on
   Maximum white noise                  ....   0.010
   Quad. conv. algorithm                .... NR
 SOSCF                  CNVSOSCF        .... on
   Start iteration      SOSCFMaxIt      ....   150
   Startup grad/error   SOSCFStart      ....  0.003300
 Level Shifting         CNVShift        .... on
   Level shift para.    LevelShift      ....    0.2500
   Turn off err/grad.   ShiftErr        ....    0.0010
 Zerner damping         CNVZerner       .... off
 Static damping         CNVDamp         .... on
   Fraction old density DampFac         ....    0.7000
   Max. Damping (<1)    DampMax         ....    0.9800
   Min. Damping (>=0)   DampMin         ....    0.0000
   Turn off err/grad.   DampErr         ....    0.1000
 Fernandez-Rico         CNVRico         .... off

SCF Procedure:
 Maximum # iterations   MaxIter         ....   125
 SCF integral mode      SCFMode         .... Direct
   Integral package                     .... SHARK and LIBINT hybrid scheme
 Reset frequency        DirectResetFreq ....    20
 Integral Threshold     Thresh          ....  1.000e-10 Eh
 Primitive CutOff       TCut            ....  1.000e-11 Eh

Convergence Tolerance:
 Convergence Check Mode ConvCheckMode   .... Total+1el-Energy
 Convergence forced     ConvForced      .... 1
 Energy Change          TolE            ....  1.000e-06 Eh
 1-El. energy change                    ....  1.000e-03 Eh
 Orbital Gradient       TolG            ....  5.000e-05
 Orbital Rotation angle TolX            ....  5.000e-05
 DIIS Error             TolErr          ....  1.000e-06


Diagonalization of the overlap matrix:
Smallest eigenvalue                        ... 6.265e-05
Time for diagonalization                   ...    0.046 sec
Threshold for overlap eigenvalues          ... 1.000e-08
Number of eigenvalues below threshold      ... 0
Time for construction of square roots      ...    0.078 sec
Total time needed                          ...    0.127 sec

Time for model grid setup =    0.167 sec

------------------------------
INITIAL GUESS: MODEL POTENTIAL
------------------------------
Loading Hartree-Fock densities                     ... done
Calculating cut-offs                               ... done
Initializing the effective Hamiltonian             ... done
Setting up the integral package (SHARK)            ... done
Starting the Coulomb interaction                   ... done (   0.4 sec)
Reading the grid                                   ... done
Mapping shells                                     ... done
Starting the XC term evaluation                    ... done (   0.0 sec)
Transforming the Hamiltonian                       ... done (   0.0 sec)
Diagonalizing the Hamiltonian                      ... done (   0.0 sec)
Back transforming the eigenvectors                 ... done (   0.0 sec)
Now organizing SCF variables                       ... done
                      ------------------
                      INITIAL GUESS DONE (   0.7 sec)
                      ------------------
--------------
SCF ITERATIONS
--------------
ITER       Energy         Delta-E        Max-DP      RMS-DP      [F,P]     Damp
               ***  Starting incremental Fock matrix formation  ***
  0   -114.9703676016   0.000000000000 0.02778904  0.00066901  0.3097619 0.7000
  1   -115.0144500517  -0.044082450094 0.02041289  0.00048146  0.1864879 0.7000
                               ***Turning on DIIS***
  2   -115.0399513892  -0.025501337495 0.01486259  0.00030802  0.1103672 0.7000
  3   -115.3120369751  -0.272085585843 0.03724416  0.00068671  0.0830290 0.0000
  4   -115.0700733059   0.241963669196 0.00501670  0.00010153  0.0062699 0.0000
                      *** Initiating the SOSCF procedure ***
                           *** Shutting down DIIS ***
                      *** Re-Reading the Fockian *** 
                      *** Removing any level shift *** 
ITER      Energy       Delta-E        Grad      Rot      Max-DP    RMS-DP
  5   -115.09067928  -0.0206059742  0.001003  0.001003  0.001439  0.000038
               *** Restarting incremental Fock matrix formation ***
  6   -115.09186735  -0.0011880685  0.000322  0.000507  0.001071  0.000018
  7   -115.09187306  -0.0000057090  0.000146  0.000414  0.000405  0.000011
  8   -115.09187411  -0.0000010561  0.000065  0.000049  0.000051  0.000002
                 **** Energy Check signals convergence ****
              ***Rediagonalizing the Fockian in SOSCF/NRSCF***

               *****************************************************
               *                     SUCCESS                       *
               *           SCF CONVERGED AFTER   9 CYCLES          *
               *****************************************************


----------------
TOTAL SCF ENERGY
----------------

Total Energy       :         -115.09187420 Eh           -3131.80912 eV

Components:
Nuclear Repulsion  :           40.29107503 Eh            1096.37589 eV
Electronic Energy  :         -155.38294924 Eh           -4228.18501 eV
One Electron Energy:         -236.81502192 Eh           -6444.06436 eV
Two Electron Energy:           81.43207268 Eh            2215.87935 eV

Virial components:
Potential Energy   :         -229.99917318 Eh           -6258.59568 eV
Kinetic Energy     :          114.90729898 Eh            3126.78657 eV
Virial Ratio       :            2.00160630


---------------
SCF CONVERGENCE
---------------

  Last Energy change         ...   -8.8542e-08  Tolerance :   1.0000e-06
  Last MAX-Density change    ...    3.3645e-05  Tolerance :   1.0000e-05
  Last RMS-Density change    ...    5.6845e-07  Tolerance :   1.0000e-06
  Last Orbital Gradient      ...    1.4247e-05  Tolerance :   5.0000e-05
  Last Orbital Rotation      ...    1.0576e-05  Tolerance :   5.0000e-05

             **** THE GBW FILE WAS UPDATED (ch3oh.gbw) ****
             **** DENSITY ch3oh.scfp WAS UPDATED ****
             **** ENERGY FILE WAS UPDATED (ch3oh.en.tmp) ****
             **** THE GBW FILE WAS UPDATED (ch3oh.gbw) ****
             **** DENSITY ch3oh.scfp WAS UPDATED ****
----------------
ORBITAL ENERGIES
----------------

  NO   OCC          E(Eh)            E(eV) 
   0   2.0000     -20.560381      -559.4764 
   1   2.0000     -11.271672      -306.7178 
   2   2.0000      -1.357637       -36.9432 
   3   2.0000      -0.925563       -25.1858 
   4   2.0000      -0.691087       -18.8054 
   5   2.0000      -0.619637       -16.8612 
   6   2.0000      -0.593401       -16.1473 
   7   2.0000      -0.504349       -13.7240 
   8   2.0000      -0.452004       -12.2997 
   9   0.0000       0.028476         0.7749 
  10   0.0000       0.042929         1.1681 
  11   0.0000       0.046653         1.2695 
  12   0.0000       0.053023         1.4428 
  13   0.0000       0.099094         2.6965 
  14   0.0000       0.116550         3.1715 
  15   0.0000       0.129229         3.5165 
  16   0.0000       0.139952         3.8083 
  17   0.0000       0.165397         4.5007 
  18   0.0000       0.172989         4.7073 
  19   0.0000       0.182817         4.9747 
  20   0.0000       0.211246         5.7483 
  21   0.0000       0.215635         5.8677 
  22   0.0000       0.268344         7.3020 
  23   0.0000       0.269078         7.3220 
  24   0.0000       0.293148         7.9770 
  25   0.0000       0.300490         8.1767 
  26   0.0000       0.320823         8.7300 
  27   0.0000       0.321791         8.7564 
  28   0.0000       0.333155         9.0656 
  29   0.0000       0.343385         9.3440 
  30   0.0000       0.351600         9.5675 
  31   0.0000       0.369045        10.0422 
  32   0.0000       0.391372        10.6498 
  33   0.0000       0.408690        11.1210 
  34   0.0000       0.433216        11.7884 
  35   0.0000       0.437071        11.8933 
  36   0.0000       0.446106        12.1392 
  37   0.0000       0.454603        12.3704 
  38   0.0000       0.460701        12.5363 
  39   0.0000       0.479724        13.0539 
  40   0.0000       0.506003        13.7690 
  41   0.0000       0.514050        13.9880 
  42   0.0000       0.525309        14.2944 
  43   0.0000       0.664411        18.0796 
  44   0.0000       0.668094        18.1798 
  45   0.0000       0.680939        18.5293 
  46   0.0000       0.753892        20.5145 
  47   0.0000       0.770393        20.9635 
  48   0.0000       0.780497        21.2384 
  49   0.0000       0.791753        21.5447 
  50   0.0000       0.805602        21.9215 
  51   0.0000       0.850150        23.1338 
  52   0.0000       0.856621        23.3098 
  53   0.0000       0.887150        24.1406 
  54   0.0000       0.900019        24.4908 
  55   0.0000       0.931819        25.3561 
  56   0.0000       0.935471        25.4555 
  57   0.0000       0.937574        25.5127 
  58   0.0000       0.949511        25.8375 
  59   0.0000       0.974368        26.5139 
  60   0.0000       0.978457        26.6252 
  61   0.0000       0.983551        26.7638 
  62   0.0000       1.016706        27.6660 
  63   0.0000       1.043077        28.3836 
  64   0.0000       1.070658        29.1341 
  65   0.0000       1.072998        29.1978 
  66   0.0000       1.093848        29.7651 
  67   0.0000       1.110095        30.2072 
  68   0.0000       1.123101        30.5611 
  69   0.0000       1.138589        30.9826 
  70   0.0000       1.145146        31.1610 
  71   0.0000       1.177979        32.0544 
  72   0.0000       1.200164        32.6581 
  73   0.0000       1.202772        32.7291 
  74   0.0000       1.251251        34.0483 
  75   0.0000       1.296232        35.2723 
  76   0.0000       1.315680        35.8015 
  77   0.0000       1.371464        37.3194 
  78   0.0000       1.407972        38.3129 
  79   0.0000       1.436874        39.0993 
  80   0.0000       1.531517        41.6747 
  81   0.0000       1.554910        42.3113 
  82   0.0000       1.559211        42.4283 
  83   0.0000       1.593352        43.3573 
  84   0.0000       1.600258        43.5452 
  85   0.0000       1.612660        43.8827 
  86   0.0000       1.650417        44.9101 
  87   0.0000       1.658298        45.1246 
  88   0.0000       1.671141        45.4741 
  89   0.0000       1.701187        46.2917 
  90   0.0000       1.732311        47.1386 
  91   0.0000       1.754008        47.7290 
  92   0.0000       1.887117        51.3511 
  93   0.0000       1.933862        52.6231 
  94   0.0000       1.956850        53.2486 
  95   0.0000       1.975096        53.7451 
  96   0.0000       2.034013        55.3483 
  97   0.0000       2.038917        55.4818 
  98   0.0000       2.072469        56.3947 
  99   0.0000       2.080473        56.6126 
 100   0.0000       2.164295        58.8935 
 101   0.0000       2.177307        59.2475 
 102   0.0000       2.377074        64.6835 
 103   0.0000       2.475257        67.3552 
 104   0.0000       2.482122        67.5420 
 105   0.0000       2.512693        68.3739 
 106   0.0000       2.553750        69.4911 
 107   0.0000       2.579748        70.1985 
 108   0.0000       2.731298        74.3224 
 109   0.0000       2.755741        74.9875 
 110   0.0000       2.782120        75.7053 
 111   0.0000       2.840782        77.3016 
 112   0.0000       2.888310        78.5949 
 113   0.0000       2.943523        80.0973 
 114   0.0000       2.979678        81.0812 
 115   0.0000       3.046305        82.8942 
 116   0.0000       3.186751        86.7159 
 117   0.0000       3.317754        90.2807 
 118   0.0000       3.380950        92.0003 
 119   0.0000       3.527553        95.9896 
 120   0.0000       3.549155        96.5774 
 121   0.0000       3.578685        97.3810 
 122   0.0000       3.624762        98.6348 
 123   0.0000       3.633893        98.8833 
 124   0.0000       3.701612       100.7260 
 125   0.0000       3.776243       102.7568 
 126   0.0000       3.855596       104.9161 
 127   0.0000       3.886508       105.7573 
 128   0.0000       3.933777       107.0435 
 129   0.0000       3.943689       107.3132 
 130   0.0000       3.989870       108.5699 
 131   0.0000       4.061578       110.5212 
 132   0.0000       4.083461       111.1166 
 133   0.0000       4.101430       111.6056 
 134   0.0000       4.165441       113.3474 
 135   0.0000       4.201704       114.3342 
 136   0.0000       4.223804       114.9356 
 137   0.0000       4.229860       115.1003 
 138   0.0000       4.280149       116.4688 
 139   0.0000       4.470007       121.6351 
 140   0.0000       4.498625       122.4138 
 141   0.0000       4.517159       122.9181 
 142   0.0000       4.547284       123.7379 
 143   0.0000       4.604990       125.3081 
 144   0.0000       4.641403       126.2990 
 145   0.0000       4.755017       129.3906 
 146   0.0000       4.755423       129.4016 
 147   0.0000       4.760134       129.5298 
 148   0.0000       4.905422       133.4833 
 149   0.0000       4.964990       135.1042 
 150   0.0000       5.015200       136.4705 
 151   0.0000       5.027755       136.8122 
 152   0.0000       5.059948       137.6882 
 153   0.0000       5.131144       139.6255 
 154   0.0000       5.239585       142.5764 
 155   0.0000       5.253078       142.9435 
 156   0.0000       5.375245       146.2678 
 157   0.0000       5.466129       148.7409 
 158   0.0000       5.519833       150.2023 
 159   0.0000       5.587958       152.0561 
 160   0.0000       5.592216       152.1719 
 161   0.0000       5.627855       153.1417 
 162   0.0000       5.709978       155.3764 
 163   0.0000       6.101378       166.0269 
 164   0.0000       6.105062       166.1272 
 165   0.0000       6.124162       166.6469 
 166   0.0000       6.158980       167.5944 
 167   0.0000       6.558343       178.4616 
 168   0.0000       6.613293       179.9568 
 169   0.0000       6.625062       180.2771 
 170   0.0000       6.876972       187.1319 
 171   0.0000       6.890779       187.5076 
 172   0.0000       7.061152       192.1437 
 173   0.0000       7.259511       197.5413 
 174   0.0000       7.304616       198.7687 
 175   0.0000       7.365982       200.4386 
 176   0.0000       7.468937       203.2401 
 177   0.0000       7.522126       204.6874 
 178   0.0000       7.726631       210.2523 
 179   0.0000       7.838917       213.3078 
 180   0.0000       8.133204       221.3157 
 181   0.0000       8.500635       231.3140 
 182   0.0000      15.515214       422.1904 
 183   0.0000      17.633495       479.8318 

                    ********************************
                    * MULLIKEN POPULATION ANALYSIS *
                    ********************************

-----------------------
MULLIKEN ATOMIC CHARGES
-----------------------
   0 C :   -0.623727
   1 O :   -0.503804
   2 H :    0.323361
   3 H :    0.196494
   4 H :    0.303838
   5 H :    0.303838
Sum of atomic charges:    0.0000000

--------------------------------
MULLIKEN REDUCED ORBITAL CHARGES
--------------------------------
  0 C s       :     3.256428  s :     3.256428
      pz      :     1.180593  p :     3.121821
      px      :     1.242217
      py      :     0.699011
      dz2     :     0.027783  d :     0.225942
      dxz     :     0.030686
      dyz     :     0.077797
      dx2y2   :     0.041431
      dxy     :     0.048245
      f0      :     0.003174  f :     0.019535
      f+1     :     0.002186
      f-1     :     0.001673
      f+2     :     0.003489
      f-2     :     0.001913
      f+3     :     0.005660
      f-3     :     0.001442
  1 O s       :     3.871941  s :     3.871941
      pz      :     1.905755  p :     4.600248
      px      :     1.360327
      py      :     1.334166
      dz2     :     0.002615  d :     0.029154
      dxz     :     0.001012
      dyz     :     0.004041
      dx2y2   :     0.016680
      dxy     :     0.004807
      f0      :     0.000300  f :     0.002461
      f+1     :     0.000335
      f-1     :     0.000659
      f+2     :     0.000230
      f-2     :     0.000047
      f+3     :     0.000633
      f-3     :     0.000257
  2 H s       :     0.647145  s :     0.647145
      pz      :     0.002927  p :     0.029411
      px      :     0.023475
      py      :     0.003010
      dz2     :    -0.001130  d :     0.000083
      dxz     :     0.001861
      dyz     :     0.000289
      dx2y2   :    -0.000567
      dxy     :    -0.000370
  3 H s       :     0.682256  s :     0.682256
      pz      :     0.047633  p :     0.098035
      px      :     0.008250
      py      :     0.042153
      dz2     :     0.000730  d :     0.023215
      dxz     :     0.008739
      dyz     :     0.001227
      dx2y2   :     0.005077
      dxy     :     0.007442
  4 H s       :     0.661697  s :     0.661697
      pz      :     0.016204  p :     0.033467
      px      :     0.006679
      py      :     0.010585
      dz2     :     0.001300  d :     0.000997
      dxz     :     0.000382
      dyz     :    -0.000524
      dx2y2   :    -0.000314
      dxy     :     0.000153
  5 H s       :     0.661697  s :     0.661697
      pz      :     0.016204  p :     0.033467
      px      :     0.006679
      py      :     0.010585
      dz2     :     0.001300  d :     0.000997
      dxz     :     0.000382
      dyz     :    -0.000524
      dx2y2   :    -0.000314
      dxy     :     0.000153


                     *******************************
                     * LOEWDIN POPULATION ANALYSIS *
                     *******************************

----------------------
LOEWDIN ATOMIC CHARGES
----------------------
   0 C :    0.320111
   1 O :    0.770520
   2 H :   -0.201031
   3 H :   -0.509877
   4 H :   -0.189862
   5 H :   -0.189862

-------------------------------
LOEWDIN REDUCED ORBITAL CHARGES
-------------------------------
  0 C s       :     2.473890  s :     2.473890
      pz      :     0.792766  p :     2.191002
      px      :     0.798003
      py      :     0.600232
      dz2     :     0.096464  d :     0.696051
      dxz     :     0.059597
      dyz     :     0.204927
      dx2y2   :     0.170053
      dxy     :     0.165009
      f0      :     0.039129  f :     0.318946
      f+1     :     0.018728
      f-1     :     0.041953
      f+2     :     0.060513
      f-2     :     0.012871
      f+3     :     0.095436
      f-3     :     0.050316
  1 O s       :     3.013020  s :     3.013020
      pz      :     1.444772  p :     3.894990
      px      :     1.267998
      py      :     1.182221
      dz2     :     0.025169  d :     0.257468
      dxz     :     0.001442
      dyz     :     0.065939
      dx2y2   :     0.072548
      dxy     :     0.092370
      f0      :     0.007819  f :     0.064002
      f+1     :     0.003201
      f-1     :     0.005662
      f+2     :     0.012628
      f-2     :     0.000578
      f+3     :     0.023841
      f-3     :     0.010272
  2 H s       :     0.669259  s :     0.669259
      pz      :     0.089559  p :     0.304344
      px      :     0.151205
      py      :     0.063580
      dz2     :     0.016569  d :     0.227427
      dxz     :     0.087993
      dyz     :     0.007892
      dx2y2   :     0.064631
      dxy     :     0.050342
  3 H s       :     0.596934  s :     0.596934
      pz      :     0.157183  p :     0.541154
      px      :     0.249463
      py      :     0.134508
      dz2     :     0.033543  d :     0.371788
      dxz     :     0.111252
      dyz     :     0.015496
      dx2y2   :     0.118370
      dxy     :     0.093127
  4 H s       :     0.673358  s :     0.673358
      pz      :     0.133959  p :     0.299452
      px      :     0.102631
      py      :     0.062862
      dz2     :     0.077279  d :     0.217052
      dxz     :     0.048673
      dyz     :     0.034526
      dx2y2   :     0.041550
      dxy     :     0.015024
  5 H s       :     0.673358  s :     0.673358
      pz      :     0.133959  p :     0.299452
      px      :     0.102631
      py      :     0.062862
      dz2     :     0.077279  d :     0.217052
      dxz     :     0.048673
      dyz     :     0.034526
      dx2y2   :     0.041550
      dxy     :     0.015024


                      *****************************
                      * MAYER POPULATION ANALYSIS *
                      *****************************

  NA   - Mulliken gross atomic population
  ZA   - Total nuclear charge
  QA   - Mulliken gross atomic charge
  VA   - Mayer's total valence
  BVA  - Mayer's bonded valence
  FA   - Mayer's free valence

  ATOM       NA         ZA         QA         VA         BVA        FA
  0 C      6.6237     6.0000    -0.6237     3.5816     3.5816    -0.0000
  1 O      8.5038     8.0000    -0.5038     1.8457     1.8457     0.0000
  2 H      0.6766     1.0000     0.3234     0.9592     0.9592    -0.0000
  3 H      0.8035     1.0000     0.1965     1.0345     1.0345     0.0000
  4 H      0.6962     1.0000     0.3038     0.9875     0.9875    -0.0000
  5 H      0.6962     1.0000     0.3038     0.9875     0.9875     0.0000

  Mayer bond orders larger than 0.100000
B(  0-C ,  1-O ) :   0.8238 B(  0-C ,  2-H ) :   0.9074 B(  0-C ,  4-H ) :   0.9017 
B(  0-C ,  5-H ) :   0.9017 B(  1-O ,  3-H ) :   0.9813 

-------
TIMINGS
-------

Total SCF time: 0 days 0 hours 0 min 18 sec 

Total time                  ....      18.747 sec
Sum of individual times     ....      16.427 sec  ( 87.6%)

Fock matrix formation       ....      14.042 sec  ( 74.9%)
Diagonalization             ....       0.274 sec  (  1.5%)
Density matrix formation    ....       0.005 sec  (  0.0%)
Population analysis         ....       0.416 sec  (  2.2%)
Initial guess               ....       0.570 sec  (  3.0%)
Orbital Transformation      ....       0.000 sec  (  0.0%)
Orbital Orthonormalization  ....       0.000 sec  (  0.0%)
DIIS solution               ....       0.767 sec  (  4.1%)
SOSCF solution              ....       0.188 sec  (  1.0%)

Maximum memory used throughout the entire SCF-calculation: 230.1 MB


           ************************************************************
           *        Program running with 6 parallel MPI-processes     *
           *              working on a common directory               *
           ************************************************************


--------------------------------------------------------------------------------
                             ORCA-MATRIX DRIVEN CI
--------------------------------------------------------------------------------


Wavefunction type
-----------------
Correlation treatment                      ...      CCSD     
Single excitations                         ... ON
Orbital optimization                       ... OFF
Calculation of Z vector                    ... OFF
Calculation of Brueckner orbitals          ... OFF
Perturbative triple excitations            ... ON
Calculation of F12 correction              ... OFF
Frozen core treatment                      ... chemical core (4 el)
Reference Wavefunction                     ... RHF
  Internal Orbitals:     2 ...    8 (  7 MO's/ 14 electrons)
  Virtual  Orbitals:     9 ...  183 (175 MO's              )
Number of AO's                             ...    184
Number of electrons                        ...     18
Number of correlated electrons             ...     14

Algorithmic settings
--------------------
Integral transformation                    ... All integrals via the RI transformation
K(C) Formation                             ... RI-DLPNO
   PNO-Integral Storage                    ... ON DISK
   PNO occupation number cut-off           ... 1.000e-07
   Singles PNO occupation number cut-off   ... 3.000e-09
   PNO Mulliken prescreening cut-off       ... 1.000e-03
   Domain cut-off (Mulliken population)    ... 1.000e-03
   PNO Normalization                       ...    1
Maximum number of iterations               ...        50
Convergence tolerance (max. residuum)      ... 2.500e-05
Level shift for amplitude update           ... 2.000e-01
Maximum number of DIIS vectors             ...         7
DIIS turned on at iteration                ...         0
Damping before turning on DIIS             ...     0.500
Damping after turning on DIIS              ...     0.000
Pair specific amplitude update             ... OFF
Natural orbital iterations                 ... OFF
Perturbative natural orbital generation    ... OFF
Printlevel                                 ... 2

Singles Fock matrix elements calculated using PNOs.

Memory handling:
----------------
Maximum memory for working arrays          ...    512 MB
Data storage in matrix containers          ... UNCOMPRESSED
Data type for integral storage             ... DOUBLE
In-Core Storage of quantities:
   Amplitudes+Sigma Vector      ... NO
   J+K operators                ... NO
   DIIS vectors                 ... NO
   3-external integrals         ... NO
   4-external integrals         ... NO

Localization treatment:
-----------------------
Localization option                        ...    6
Localization threshhold                    ... -1.0e+00
Using relative localization threshhold     ... 1.0e-08
Neglect threshold for strong pairs         ... 1.000e-05 Eh
Prescreening threshold for very weak pairs ... 1.000e-07 Eh

Initializing the integral package          ... done
Localizing the valence orbitals
------------------------------------------------------------------------------
                           ORCA ORBITAL LOCALIZATION
------------------------------------------------------------------------------

Input orbitals are from                  ... ch3oh.gbw
Output orbitals are to                   ... ch3oh.loc
Max. number of iterations                ... 128
Localizations seeded randomly            ... off
Convergence tolerance                    ... 1.000e-06
Using relative localization threshhold   ... 1.000e-08
Treshold for strong local MOs            ... 9.500e-01
Treshold for bond MOs                    ... 8.500e-01
Operator                                 ... 0
Orbital range for localization           ... 2 to 8
Localization criterion                   ... FOSTER-BOYS (AUGMENTED HESSIAN)
Doing the dipole integrals     ... o.k.
Initial value of the localization sum :    14.626723
ITERATION   0 : L=   23.7533474470 DL=  9.13e+00 (AVERGE_DL)=    0.6592428832 
ITERATION   1 : L=   24.0412288132 DL=  2.88e-01 (AVERGE_DL)=    0.1170838865 
ITERATION   2 : L=   24.0463347819 DL=  5.11e-03 (AVERGE_DL)=    0.0155929909 
ITERATION   3 : L=   24.0467174414 DL=  3.83e-04 (AVERGE_DL)=    0.0042687090 
ITERATION   4 : L=   24.0467630804 DL=  4.56e-05 (AVERGE_DL)=    0.0014742072 
ITERATION   5 : L=   24.0467680552 DL=  4.97e-06 (AVERGE_DL)=    0.0004867199 
ITERATION   6 : L=   24.0467685492 DL=  4.94e-07 (AVERGE_DL)=    0.0001533780 
LOCALIZATION SUM CONVERGED

------------------------------------------------------
AUGMENTED HESSIAN OPTIMIZATION OF FOSTER-BOYS ORBITALS
------------------------------------------------------

Spin operator:           0
Orbital window:          2 to 8
Number of iterations:    128
Gradient tolerance:      1.000e-06
Number of pairs:         21
Davidson threshold:      2000
Diagonalization method:  LAPACK
Iter:    0   L: 24.0467685492   Grad. norm: 4.333306e-04
   *** Likely close to a maximum now. ***
       Augmented Hessian eigenvalues:  9.91e-08 -1.39e+00 -3.51e+00 -5.12e+00 ... 
Iter:    1   L: 24.0467685988   Grad. norm: 4.755005e-08
LOCALIZATION HAS CONVERGED.

Eigenvalues of the Hessian:
  0 -1.390e+00
  1 -3.513e+00
  2 -5.115e+00
  3 -5.569e+00
  4 -7.517e+00
  5 -1.024e+01
  6 -1.729e+01
  7 -2.096e+01
  8 -2.151e+01
  9 -2.425e+01
    ...


--------------------------------------------------------------------------------
                    LOCALIZED MOLECULAR ORBITAL COMPOSITIONS
--------------------------------------------------------------------------------

The Mulliken populations for each LMO on each atom are computed
The LMO`s will be ordered according to atom index and type
  (A) Strongly localized MO`s have populations of >=0.950 on one atom
  (B) Two center bond orbitals have populations of >=0.850 on two atoms
  (C) Other MO`s are considered to be `delocalized`

FOUND  -   2 strongly local MO`s
       -   5 two center bond MO`s
       -   0 significantly delocalized MO`s

Rather strongly localized orbitals:
MO   3:   1O  -   1.022932
MO   2:   1O  -   1.022932
Bond-like localized orbitals:
MO   8:   5H  -   0.317676  and   0C  -   0.665007
MO   7:   4H  -   0.317676  and   0C  -   0.665007
MO   6:   3H  -   0.407480  and   1O  -   0.579898
MO   5:   2H  -   0.312638  and   0C  -   0.682426
MO   4:   1O  -   0.653861  and   0C  -   0.330031
Localized MO's were stored in: ch3oh.loc

Localizing the core orbitals
------------------------------------------------------------------------------
                           ORCA ORBITAL LOCALIZATION
------------------------------------------------------------------------------

Input orbitals are from                  ... ch3oh.loc
Output orbitals are to                   ... ch3oh.loc
Max. number of iterations                ... 128
Localizations seeded randomly            ... off
Convergence tolerance                    ... 1.000e-06
Using relative localization threshhold   ... 1.000e-08
Treshold for strong local MOs            ... 9.500e-01
Treshold for bond MOs                    ... 8.500e-01
Operator                                 ... 0
Orbital range for localization           ... 0 to 1
Localization criterion                   ... FOSTER-BOYS (AUGMENTED HESSIAN)
Doing the dipole integrals     ... o.k.
Initial value of the localization sum :     3.632795
ITERATION   0 : L=    3.6327969661 DL=  1.56e-06 (AVERGE_DL)=    0.0012472072 
ITERATION   1 : L=    3.6327969661 DL=  0.00e+00 (AVERGE_DL)=    0.0000000000 
LOCALIZATION SUM CONVERGED

------------------------------------------------------
AUGMENTED HESSIAN OPTIMIZATION OF FOSTER-BOYS ORBITALS
------------------------------------------------------

Spin operator:           0
Orbital window:          0 to 1
Number of iterations:    128
Gradient tolerance:      1.000e-06
Number of pairs:         1
Davidson threshold:      2000
Diagonalization method:  LAPACK
Iter:    0   L: 3.6327969661   Grad. norm: 3.369285e-17
   *** Likely close to a maximum now. ***
       Augmented Hessian eigenvalues:  3.94e-35 -2.88e+01
Iter:    1   L: 3.6327969661   Grad. norm: 1.500235e-24
LOCALIZATION HAS CONVERGED.

Eigenvalues of the Hessian:
  0 -2.882e+01


--------------------------------------------------------------------------------
                    LOCALIZED MOLECULAR ORBITAL COMPOSITIONS
--------------------------------------------------------------------------------

The Mulliken populations for each LMO on each atom are computed
The LMO`s will be ordered according to atom index and type
  (A) Strongly localized MO`s have populations of >=0.950 on one atom
  (B) Two center bond orbitals have populations of >=0.850 on two atoms
  (C) Other MO`s are considered to be `delocalized`

FOUND  -   2 strongly local MO`s
       -   0 two center bond MO`s
       -   0 significantly delocalized MO`s

Rather strongly localized orbitals:
MO   1:   1O  -   0.999179
MO   0:   0C  -   0.999983
Localized MO's were stored in: ch3oh.loc

Warning: reference  - re-canonicalizations have been set to INT 1 VIRT 1
Warning: internal orbitals are localized - no re-canonicalization of internal orbitals
Warning: UsePNO is turned on - no re-canonicalization of internal and virtual orbitals

--------------------------
CLOSED-SHELL FOCK OPERATOR
--------------------------

Restoring SHARK [2] ... ok
Time needed for Fock operator              ...            2.332 sec
Reference energy                           ...   -115.091874209

--------------
DLPNO SETTINGS (2015 fully linear scaling implementation)
--------------

TCutMKN:           1.000e-03
TCutPAO:           1.000e-03
TCutPNO:           1.000e-07
TCutPNOSingles:    3.000e-09
TCutEN:            9.700e-01
TCutPAOExt:        1.000e-01
TCutPairs:         1.000e-05
TCutPre:           1.000e-07
TCutOSV:           1.000e-06
TCutDOij:          1.000e-05
TCutDO:            5.000e-03
TCutC:             1.000e-04
TCutCPAO:          1.000e-03
TCutCMO:           1.000e-03
TScaleDOMP2PreScr: 2.000e+00
TScaleMKNMP2PreScr:1.000e+01
TScalePNOMP2PreScr:1.000e+00
PAO overlap thresh 1.000e-08
Using PNOs for Singles Fock computation
Use new domains
Use fully linear algorithm
TCutTNO:           1.000e-09
TCutMP2Pairs:      1.000e-06
TCutDOStrong:      2.000e-03
TCutMKNStrong:     1.000e-02
TCutMKNWeak:       1.000e-01
TCutDOWeak:        4.000e-03
NTCutTNO:          1

--------------------------
Mulliken population of the LMOs            ... ok
Performing proximity check                 ... No problems found
Calculating differential overlap integrals ... ok

--------------------------
ELECTRON PAIR PRESCREENING
--------------------------

Dipole-based pair screening          .... used

   TCutDOij = 1.000000e-05
   TCutPre  = 1.000000e-07
   .... Finished loop over pairs
Total time spent in the prescreening                  ...     0.059 sec
sum of pair energies estimated for screened out pairs ...       0.000000000000 Eh
Thresholds for map construction and integral transformation for crude MP2:
   TCutMKN                    ...     1.0e-02
   TCutDO                     ...     1.0e-02
   TCutPairs                  ...     1.0e-05
   TCutPNO_CrudeMP2           ...     1.0e-07
   TCutPNOSingles_CrudeMP2    ...     3.0e-09
--------------------------------
LOCAL RI TRANSFORMATION (IAVPAO)
--------------------------------

Orbital window:       2 to 8
Number of PAOs:     184
Basis functions:    184 (64 shells)
Aux. functions:     396 (112 shells)
Use SHARK:           on

Processing maps (0.0 sec)
Average map sizes:
   Aux shells -> MOs               7.0
   Aux shells -> PAOs            184.0
   MOs        -> AO shells        64.0
   PAOs       -> AO shells        64.0

Calculating integrals (0.3 sec, 3.896 MB)
Sorting integrals (0.1 sec, 3.891 MB)
Total time for the integral transformation: 0.7 sec
--------------------------------
INITIAL GUESS AND PNO GENERATION
--------------------------------

PNO truncation parameters                   .... 
    PAOOverlapThresh   =        1.000e-08

    TCutPairs          =        1.000e-05
    TCutPNO            =        1.000e-07
    TCutPNOSingles     =        3.000e-09
    TCutMP2Pairs       =        1.000e-06
    TCutMKN            =        1.000e-02
    TCutDO             =        1.000e-02

Pair selection                          .... not used
Type of local MP2 treatment                 .... semi-local MP2
Strategy for PNO selection                  .... occupation number selection
Pair density normalization                  .... MP2 norm
Spin component scaling                      .... not used

   .... Finished loop over pairs
Making pair pair interaction lists          ... done

                       ===========================
                         28 OF   28 PAIRS ARE KEPT CCSD PAIRS
                          0 OF   28 PAIRS ARE KEPT MP2 PAIRS FOR (T)
                          0 OF   28 PAIRS ARE SKIPPED
                       ===========================

Total time spent in the initial guess                 ...     0.449 sec
SL-MP2 correlation energy (all non-screened pairs)    ...      -0.424589422994 Eh

Initial PNO correlation energy                        ...      -0.424377238207 Eh
sum of pair energies prescreened and skipped MP2 pairs...       0.000000000000 Eh
sum of pair energies of crude MP2 skipped pairs only  ...       0.000000000000 Eh
sum of MP2 pair energies for pairs that were not kept ...       0.000000000000 Eh
sum of PNO error estimates for the kept pairs         ...      -0.000212184787 Eh
                                                          --------------------
sum of all corrections                                         -0.000212184787
Initial total correlation energy                               -0.424589422994
Thresholds for map construction and integral transformation for fine MP2 and CCSD(T) calculation:
   TCutMKN   ...     1.0e-03
   TCutDO    ...     5.0e-03
   TCutPairs ...     1.0e-05
   TCutCMO   ...     1.0e-03
   TCutCPAO  ...     1.0e-03

Thresholds for map construction and integral transformation for strong Triples:
   TCutMKN   ...     1.0e-02
   TCutDO    ...     1.0e-02
   TCutCMO   ...     1.0e-03
   TCutCPAO  ...     1.0e-03

Thresholds for map construction and integral transformation for weak Triples:
   TCutMKN   ...     1.0e-01
   TCutDO    ...     2.0e-02
   TCutCMO   ...     1.0e-03
   TCutCPAO  ...     1.0e-03

--------------------------------
LOCAL RI TRANSFORMATION (IAVPAO)
--------------------------------

Orbital window:       2 to 8
Number of PAOs:     184
Basis functions:    184 (64 shells)
Aux. functions:     396 (112 shells)
Use SHARK:           on

Processing maps (0.0 sec)
Average map sizes:
   Aux shells -> MOs               7.0
   Aux shells -> PAOs            184.0
   MOs        -> AO shells        64.0
   PAOs       -> AO shells        64.0

Calculating integrals (0.3 sec, 3.896 MB)
Sorting integrals (0.1 sec, 3.891 MB)
Total time for the integral transformation: 0.6 sec
--------------------------------
INITIAL GUESS AND PNO GENERATION
--------------------------------

PNO truncation parameters                   .... 
    ScaleTCutPNO       =        1.000e-02
    PAOOverlapThresh   =        1.000e-08

    TCutPairs          =        1.000e-05
    TCutPNO            =        1.000e-07
    TCutPNOSingles     =        3.000e-09
    TCutMP2Pairs       =        1.000e-06
    TCutMKN            =        1.000e-03
    TCutDO             =        5.000e-03

Pair selection                          .... not used
Type of local MP2 treatment                 .... full local PMP2
Strategy for PNO selection                  .... occupation number selection
Pair density normalization                  .... MP2 norm
Spin component scaling                      .... not used

PASS-1: Formation of initial guess LMP2 amplitudes
Initial amplitudes guess done. Entering LMP2 iteration loop:
   Max. no of iterations          ...  50
   Energy convergence tolerance   ...    1.0e-07
   Residual convergence tolerance ...    5.0e-07
   Fock matrix cutoff             ...    1.0e-05 Eh
   DIIS convergence acceleration parameters:
        Max # vectors in DIIS     ... 7
        Start iteration of DIIS   ... 0
        Levelshift                ... 2.000e-01
        Damping factor 1          ... 5.000e-01
        Damping factor 2          ... 1.000e+00
   L-MP2 PNO cut-off              ...   1.0e-09
   L-MP2 PNO cut-off (core)       ...   1.0e-11
                           *** Turning on DIIS ***
LMP2-Iter=   0:  ELMP2= -0.432246189023  DE=   7.6e-03 RMAX=   4.4e-03
LMP2-Iter=   1:  ELMP2= -0.436327385569  DE=   4.1e-03 RMAX=   2.1e-03
LMP2-Iter=   2:  ELMP2= -0.436950728926  DE=   6.2e-04 RMAX=   4.0e-04
LMP2-Iter=   3:  ELMP2= -0.437025759535  DE=   7.5e-05 RMAX=   1.6e-04
LMP2-Iter=   4:  ELMP2= -0.437030573961  DE=   4.8e-06 RMAX=   1.8e-05
LMP2-Iter=   5:  ELMP2= -0.437030266564  DE=   3.1e-07 RMAX=   6.6e-06
LMP2-Iter=   6:  ELMP2= -0.437030206103  DE=   6.0e-08 RMAX=   6.9e-07
LMP2-Iter=   7:  ELMP2= -0.437030203119  DE=   3.0e-09 RMAX=   1.7e-07
LMP2-Iter=   8:  ELMP2= -0.437030207793  DE=   4.7e-09 RMAX=   2.1e-08 => CONVERGED
PASS-2: Formation of Pair natural orbitals
   .... Finished loop over pairs

 PNO Occupation Number Statistics: 
  | Av. % of trace(Dij) retained        ...  99.944646625109
  | sigma^2 in % of trace(Dij) retained ...   4.06e-03
  | Av. % of trace(Di) retained         ...  99.999708619059
  | sigma^2 in % of trace(Di) retained  ...   5.05e-09
 Distributions of % trace(Dij) recovered:
  |       >= 99.9  ...    19 ( 67.9 % of all pairs)
  |   [99.0, 99.9) ...     9 ( 32.1 % of all pairs)
 Distributions of % trace(Di) recovered :
  |       >= 99.9  ...     7 (100.0 % of all I-pairs )

Making pair pair interaction lists          ... done

                       ===========================
                         28 OF   28 PAIRS ARE KEPT
                       ===========================

Total time spent in the initial guess                 ...    17.769 sec
L-MP2 correlation energy (all non-screened pairs)     ...      -0.437030207793 Eh
L-MP2 PNO error correction                            ...      -0.000002039782 Eh
                                                          --------------------
Initial total L-MP2 energy (non-screened pairs)       ...      -0.437032247575 Eh

Initial PNO correlation energy                        ...      -0.436832296985 Eh
sum of pair energies estimated for screened out pairs ...       0.000000000000 Eh
sum of MP2 pair energies for pairs that were not kept ...       0.000000000000 Eh
sum of PNO error estimates for the kept pairs         ...      -0.000199950590 Eh
                                                          --------------------
sum of all corrections                                         -0.000199950590
Initial total correlation energy                               -0.437032247575
Thresholds for map construction and integral transformation for fine MP2 and CCSD(T) calculation:
   TCutMKN   ...     1.0e-03
   TCutDO    ...     5.0e-03
   TCutPairs ...     1.0e-05
   TCutCMO   ...     1.0e-03
   TCutCPAO  ...     1.0e-03

Time for aux screen maps:            0.000
Time for maps after fine MP2:            0.002

PROBLEM (ORCA/DLPNO): not enough memory for MDCI Iterations
        MemNeeded   455.6 MB > MemAvailable   383.2 MB
        Will have to batch evaluation of 4-external contributions to sigma vector

-----------------------------
LOCAL RI TRANSFORMATION (IJV)
-----------------------------

Orbital window:       2 to 8
Basis functions:    184 (64 shells)
Aux. functions:     396 (112 shells)
Use SHARK:           on

Processing maps (0.0 sec)
Average map sizes:
   Aux shells -> MOs(i)            7.0
   Aux shells -> MOs(j)            7.0
   MOs        -> AO shells        64.0

Calculating integrals (0.3 sec, 0.153 MB)
Sorting integrals (0.1 sec, 0.148 MB)
Total time for the integral transformation: 0.6 sec
--------------------------------
LOCAL RI TRANSFORMATION (VABPAO)
--------------------------------

Number of PAOs:     184
Basis functions:    184 (64 shells)
Aux. functions:     396 (112 shells)
Use SHARK:           on

Processing maps (0.0 sec)
Average map sizes:
   Aux shells -> PAOs            184.0
   PAOs       -> AO shells        64.0

Calculating integrals (0.6 sec, 102.292 MB)
Finished


-------------------------------------
Pair Pair Term precalculation with     
RI-(ij|mn) and (im|jn) transformation  
ON THE FLY                             
-------------------------------------

   IBatch   1 (of   3)              ... done (    3.419 sec)
   IBatch   2 (of   3)              ... done (    2.984 sec)
   IBatch   3 (of   3)              ... done (    1.891 sec)
Total EXT                           ...           8.295 sec

---------------------
RI-PNO TRANSFORMATION
---------------------

Total Number of PNOs                   ...  1755
Average number of PNOs per pair        ...    62
Maximal number of PNOs per pair        ...    73
   #pairs with  1 -  5 PNOs   :    0
   #pairs with  6 - 10 PNOs   :    0
   #pairs with 11 - 15 PNOs   :    0
   #pairs with 16 - 20 PNOs   :    0
   #pairs with 21 - 25 PNOs   :    0
   #pairs with 26 - 30 PNOs   :    0
   #pairs with 31 - 35 PNOs   :    0
   #pairs with 36 - 40 PNOs   :    0
   #pairs with 41 - 45 PNOs   :    0
   #pairs with 46 - 50 PNOs   :    0
   #pairs with 51 - 55 PNOs   :    2
   #pairs with 56 - 60 PNOs   :   11
   #pairs with 61 - 65 PNOs   :    4
   #pairs with 66 - 70 PNOs   :    8
   #pairs with 71 - 75 PNOs   :    3

Generation of (ij|ab)[P] integrals            ... on
Generation of (ia|bc)[P],(ja|bc)[P] integrals ... on
Storage of 3 and 4 external integrals         ... on
Generation of ALL (ka|bc)[P] integrals        ... on
Keep RI integrals in memory                   ... off

Ibatch:  1 (of  1)
Starting 2-4 index PNO integral generation ... done

Timings:
Total PNO integral transformation time     ...          5.563 sec
Size of the 3-external file                ...        55 MB
Size of the 4-external file                ...       453 MB
Size of the IKJL file                      ...         0 MB
Size of the all 3-external file            ...       193 MB
Size of the 1-external file                ...         0 MB

Making pair/pair overlap matrices          ... done (    0.363 sec)
Size of the pair overlap file              ... 22 MB
Redoing the guess amplitudes               ... done (    0.108 sec)

-------------------------
FINAL STARTUP INFORMATION
-------------------------

E(0)                                       ...   -115.091874209
E(L-MP2)                                   ...     -0.437032248
E(L-MP2) including corrections             ...     -0.437032248
Initial E(tot)                             ...   -115.528906457
<T|T>                                      ...      0.105210463
Number of pairs included                   ... 28
Total number of pairs                      ... 28

------------------------------------------------
                  RHF COUPLED CLUSTER ITERATIONS
------------------------------------------------

Number of PNO amplitudes to be optimized   ...       111225
Number of non-PNO amplitudes               ...       857500
Untruncated number of regular amplitudes   ...       857500

Iter       E(tot)           E(Corr)          Delta-E          Residual     Time
  0   -115.516443406     -0.424369247      0.012663001      0.015036044   24.05
                           *** Turning on DIIS ***
  1   -115.532879507     -0.440805347     -0.016436101      0.007236472   23.17
  2   -115.543971359     -0.451897199     -0.011091852      0.002097860   23.52
  3   -115.546069980     -0.453995821     -0.002098622      0.001076663   23.66
  4   -115.546568310     -0.454494151     -0.000498330      0.000337301   24.56
  5   -115.546672991     -0.454598831     -0.000104680      0.000112127   24.41
  6   -115.546694056     -0.454619896     -0.000021065      0.000048935   24.75
  7   -115.546695879     -0.454621719     -0.000001823      0.000020063   24.30
               --- The Coupled-Cluster iterations have converged ---

----------------------
COUPLED CLUSTER ENERGY
----------------------

E(0)                                       ...   -115.091874209
E(CORR)(strong-pairs)                      ...     -0.454621719
E(CORR)(weak-pairs)                        ...     -0.000199951
E(CORR)(corrected)                         ...     -0.454821670
E(TOT)                                     ...   -115.546695879
Singles Norm <S|S>**1/2                    ...      0.035866582  
T1 diagnostic                              ...      0.009585747  

------------------
LARGEST AMPLITUDES
------------------
   6->  9   6->  9       0.035502
   5-> 17   5-> 17       0.035392
   5->  9   5->  9       0.033442
   8->  9   8->  9       0.033256
   7->  9   7->  9       0.033256
   4->  9   4->  9       0.031113
   5-> 17   5->  9       0.028338
   5->  9   5-> 17       0.028338
   6-> 17   6->  9       0.027442
   6->  9   6-> 17       0.027442
   8-> 16   8-> 16       0.026732
   7-> 16   7-> 16       0.026732
   6-> 17   6-> 17       0.025384
   8-> 16   8->  9       0.023019
   8->  9   8-> 16       0.023019
   7->  9   7-> 16       0.023019


-------------------------------------------
DLPNO BASED TRIPLES CORRECTION
-------------------------------------------

Singles multiplier          ...  1.000000
TCutTNO                     ... 1.000e-09
TCutMP2Pairs                ... 1.000e-06
TCutDOStrong                ... 1.000e-02
TCutMKNStrong               ... 1.000e-02
TCutDOWeak                  ... 2.000e-02
TCutMKNWeak                 ... 1.000e-01

Fragment selection                          .... not used
Fock matrix occ-virt block is zero --> Setting DT_in_Triples to false.
Number of Triples that are to be computed   ...        77

 . . . . . . . . .
10% done  
20% done  
30% done  
40% done  
50% done  
60% done  
70% done  
80% done  
90% done               (      9.279 sec)
Triples timings:
Total time for T0               ...     9.922 sec
Total time for Iterative (T)    ...     0.000 sec
Total time of overall (T)       ...     9.922 sec

Triples List generation         ...     0.000 sec
TNO generation                  ...     0.288 sec
Pair density generation         ...     0.001 sec
Look up tables                  ...     0.000 sec
Generating 3-index integrals    ...     4.102 sec
  Make 4-ind.int. from 3-ind.int...     2.252 sec
  Projecting amplitudes (D + S) ...     0.193 sec
  Downprojecting integrals      ...     0.000 sec
  Energy contr. (sum over a,b,c)...     0.522 sec
Fitting ET(->0)                 ...     0.000 sec

Everything after 3-index        ...     5.177 sec

Timing details:
 TNO integrals                  ...     6.165 sec
   Reading 3-index integrals    ...     0.570 sec
   Sorting integrals            ...     1.260 sec
       Sorting integrals 1      ...     0.000 sec
       Sorting integrals 2      ...     0.281 sec
       Sorting integrals 3      ...     0.052 sec
       Sorting integrals 4      ...     0.001 sec
       Sorting integrals 5      ...     0.004 sec
       Sorting integrals 6      ...     0.922 sec
   Calculating local VM**-1/2   ...     0.035 sec
   Orthogonal. integrals        ...     0.087 sec
   Multipl. 3-index integrals   ...     4.213 sec
   All concerning IRIab (w/TNO) ...     1.123 sec

 Calculate W0/W1                ...     2.184 sec
 W 3-ext contribution           ...     1.460 sec
 W 3-int contribution           ...     0.173 sec
 Sorting W                      ...     0.504 sec

 V exchange contribution        ...     0.160 sec

 Timings for Triples without generation
     of 3-index integrals       ...     5.177 sec
       0 weak pairs             ...     5.177 sec
       1 weak pair              ...     0.000 sec
       2 weak pairs             ...     0.000 sec
       3 weak pairs             ...     0.000 sec
  Extra time for extrapolation  ...     0.000 sec

Number of Triples   (0, 1, 2, 3 weak pairs; overall):     77       0       0       0  (    77)
Number of Atoms     (0, 1, 2, 3 weak pairs; overall):    6.0     0.0     0.0     0.0  (     6)
Number of PAOs      (0, 1, 2, 3 weak pairs; overall):  184.0     0.0     0.0     0.0  (   184)
Number of AuxFcns   (0, 1, 2, 3 weak pairs; overall):  343.7     0.0     0.0     0.0  (   396)
Number of TNOs      (0, 1, 2, 3 weak pairs         ):  115.1     0.0     0.0     0.0
Aver. Number of NTNO, Atoms, PAOs, AuxFcns / Triples:     77   115.1     6.0   184.0   343.7

Triples Correction (T)                     ...     -0.015292311
Final correlation energy                   ...     -0.470113981
E(CCSD)                                    ...   -115.546695879
E(CCSD(T))                                 ...   -115.561988190



--------------------------------------------------------------------------------
                                    TIMINGS
--------------------------------------------------------------------------------


Total execution time                   ...      245.548 sec

Localization of occupied MO's          ...        1.071 sec (  0.4%)
Fock Matrix Formation                  ...        2.332 sec (  0.9%)
Global overlap, Fock, MKN matrices     ...        0.918 sec (  0.4%)
Differential overlap integrals         ...        0.381 sec (  0.2%)
Organizing maps                        ...        0.007 sec (  0.0%)
RI 3-index integral generations        ...        2.505 sec (  1.0%)
RI-PNO integral transformation         ...       15.230 sec (  6.2%)
Initial Guess                          ...       18.347 sec (  7.5%)
DIIS Solver                            ...        6.595 sec (  2.7%)
State Vector Update                    ...        0.004 sec (  0.0%)
Sigma-vector construction              ...      190.199 sec ( 77.5%)
  <D|H|D>(0-ext)                       ...        4.758 sec (  2.5% of sigma)
  <D|H|D>(2-ext Fock)                  ...        0.005 sec (  0.0% of sigma)
  <D|H|D>(2-ext)                       ...        5.397 sec (  2.8% of sigma)
  <D|H|D>(4-ext)                       ...       34.274 sec ( 18.0% of sigma)
  <D|H|D>(4-ext-corr)                  ...       40.760 sec ( 21.4% of sigma)
  CCSD doubles correction              ...        1.894 sec (  1.0% of sigma)
  <S|H|S>                              ...       33.360 sec ( 17.5% of sigma)
  <S|H|D>(1-ext)                       ...        0.229 sec (  0.1% of sigma)
  <D|H|S>(1-ext)                       ...        0.001 sec (  0.0% of sigma)
  <S|H|D>(3-ext)                       ...        0.262 sec (  0.1% of sigma)
  Fock-dressing                        ...       25.867 sec ( 13.6% of sigma)
  Singles amplitudes                   ...        4.700 sec (  2.5% of sigma)
  (ik|jl)-dressing                     ...       11.564 sec (  6.1% of sigma)
  (ij|ab),(ia|jb)-dressing             ...       22.573 sec ( 11.9% of sigma)
  Pair energies                        ...        0.147 sec (  0.1% of sigma)
Total Time for computing (T)           ...        9.940 sec (  4.0% of ALL)


Maximum memory used throughout the entire MDCI-calculation: 512.1 MB

-------------------------   --------------------
FINAL SINGLE POINT ENERGY      -115.561988189972
-------------------------   --------------------


                            ***************************************
                            *     ORCA property calculations      *
                            ***************************************


  WARNING: The energy has been calculated at the MDCI level but the densities
           used in the property calculations are still SCF densities
           MDCI response densities have not been calculated 
           use %mdci Density linearized end
           or  %mdci Density unrelaxed end
           or  %mdci Density orbopt end

                                    ---------------------
                                    Active property flags
                                    ---------------------
   (+) Dipole Moment


------------------------------------------------------------------------------
                       ORCA ELECTRIC PROPERTIES CALCULATION
------------------------------------------------------------------------------

Dipole Moment Calculation                       ... on
Quadrupole Moment Calculation                   ... off
Polarizability Calculation                      ... off
GBWName                                         ... ch3oh.gbw
Electron density                                ... ch3oh.scfp
The origin for moment calculation is the CENTER OF MASS  = (-0.033493, -0.123459 -0.000000)

-------------
DIPOLE MOMENT
-------------
                                X             Y             Z
Electronic contribution:     -0.11242      -1.76455      -0.00000
Nuclear contribution   :      0.67959       2.19122       0.00000
                        -----------------------------------------
Total Dipole Moment    :      0.56716       0.42667       0.00000
                        -----------------------------------------
Magnitude (a.u.)       :      0.70973
Magnitude (Debye)      :      1.80400



--------------------
Rotational spectrum 
--------------------
 
Rotational constants in cm-1:     4.290689     0.825766     0.796891 
Rotational constants in MHz : 128631.628513 24755.848058 23890.190849 

 Dipole components along the rotational axes: 
x,y,z [a.u.] :     0.393265     0.590817     0.000000 
x,y,z [Debye]:     0.999600     1.501737     0.000000 

 

Timings for individual modules:

Sum of individual times         ...      268.536 sec (=   4.476 min)
GTO integral calculation        ...        2.338 sec (=   0.039 min)   0.9 %
SCF iterations                  ...       19.485 sec (=   0.325 min)   7.3 %
MDCI module                     ...      246.713 sec (=   4.112 min)  91.9 %
                             ****ORCA TERMINATED NORMALLY****
TOTAL RUN TIME: 0 days 0 hours 4 minutes 30 seconds 784 msec
