
                                 *****************
                                 * O   R   C   A *
                                 *****************

                                            #,                                       
                                            ###                                      
                                            ####                                     
                                            #####                                    
                                            ######                                   
                                           ########,                                 
                                     ,,################,,,,,                         
                               ,,#################################,,                 
                          ,,##########################################,,             
                       ,#########################################, ''#####,          
                    ,#############################################,,   '####,        
                  ,##################################################,,,,####,       
                ,###########''''           ''''###############################       
              ,#####''   ,,,,##########,,,,          '''####'''          '####       
            ,##' ,,,,###########################,,,                        '##       
           ' ,,###''''                  '''############,,,                           
         ,,##''                                '''############,,,,        ,,,,,,###''
      ,#''                                            '''#######################'''  
     '                                                          ''''####''''         
             ,#######,   #######,   ,#######,      ##                                
            ,#'     '#,  ##    ##  ,#'     '#,    #''#        ######   ,####,        
            ##       ##  ##   ,#'  ##            #'  '#       #        #'  '#        
            ##       ##  #######   ##           ,######,      #####,   #    #        
            '#,     ,#'  ##    ##  '#,     ,#' ,#      #,         ##   #,  ,#        
             '#######'   ##     ##  '#######'  #'      '#     #####' # '####'        



                  #######################################################
                  #                        -***-                        #
                  #          Department of theory and spectroscopy      #
                  #    Directorship and core code : Frank Neese         #
                  #        Max Planck Institute fuer Kohlenforschung    #
                  #                Kaiser Wilhelm Platz 1               #
                  #                 D-45470 Muelheim/Ruhr               #
                  #                      Germany                        #
                  #                                                     #
                  #                  All rights reserved                #
                  #                        -***-                        #
                  #######################################################


                         Program Version 5.0.2 -  RELEASE  -


 With contributions from (in alphabetic order):
   Daniel Aravena         : Magnetic Suceptibility
   Michael Atanasov       : Ab Initio Ligand Field Theory (pilot matlab implementation)
   Alexander A. Auer      : GIAO ZORA, VPT2 properties, NMR spectrum
   Ute Becker             : Parallelization
   Giovanni Bistoni       : ED, misc. LED, open-shell LED, HFLD
   Martin Brehm           : Molecular dynamics
   Dmytro Bykov           : SCF Hessian
   Vijay G. Chilkuri      : MRCI spin determinant printing, contributions to CSF-ICE
   Dipayan Datta          : RHF DLPNO-CCSD density
   Achintya Kumar Dutta   : EOM-CC, STEOM-CC
   Dmitry Ganyushin       : Spin-Orbit,Spin-Spin,Magnetic field MRCI
   Miquel Garcia          : C-PCM and meta-GGA Hessian, CC/C-PCM, Gaussian charge scheme
   Yang Guo               : DLPNO-NEVPT2, F12-NEVPT2, CIM, IAO-localization
   Andreas Hansen         : Spin unrestricted coupled pair/coupled cluster methods
   Benjamin Helmich-Paris : MC-RPA, TRAH-SCF, COSX integrals
   Lee Huntington         : MR-EOM, pCC
   Robert Izsak           : Overlap fitted RIJCOSX, COSX-SCS-MP3, EOM
   Marcus Kettner         : VPT2
   Christian Kollmar      : KDIIS, OOCD, Brueckner-CCSD(T), CCSD density, CASPT2, CASPT2-K
   Simone Kossmann        : Meta GGA functionals, TD-DFT gradient, OOMP2, MP2 Hessian
   Martin Krupicka        : Initial AUTO-CI
   Lucas Lang             : DCDCAS
   Marvin Lechner         : AUTO-CI (C++ implementation), FIC-MRCC
   Dagmar Lenk            : GEPOL surface, SMD
   Dimitrios Liakos       : Extrapolation schemes; Compound Job, initial MDCI parallelization
   Dimitrios Manganas     : Further ROCIS development; embedding schemes
   Dimitrios Pantazis     : SARC Basis sets
   Anastasios Papadopoulos: AUTO-CI, single reference methods and gradients
   Taras Petrenko         : DFT Hessian,TD-DFT gradient, ASA, ECA, R-Raman, ABS, FL, XAS/XES, NRVS
   Peter Pinski           : DLPNO-MP2, DLPNO-MP2 Gradient
   Christoph Reimann      : Effective Core Potentials
   Marius Retegan         : Local ZFS, SOC
   Christoph Riplinger    : Optimizer, TS searches, QM/MM, DLPNO-CCSD(T), (RO)-DLPNO pert. Triples
   Tobias Risthaus        : Range-separated hybrids, TD-DFT gradient, RPA, STAB
   Michael Roemelt        : Original ROCIS implementation
   Masaaki Saitow         : Open-shell DLPNO-CCSD energy and density
   Barbara Sandhoefer     : DKH picture change effects
   Avijit Sen             : IP-ROCIS
   Kantharuban Sivalingam : CASSCF convergence, NEVPT2, FIC-MRCI
   Bernardo de Souza      : ESD, SOC TD-DFT
   Georgi Stoychev        : AutoAux, RI-MP2 NMR, DLPNO-MP2 response
   Willem Van den Heuvel  : Paramagnetic NMR
   Boris Wezisla          : Elementary symmetry handling
   Frank Wennmohs         : Technical directorship


 We gratefully acknowledge several colleagues who have allowed us to
 interface, adapt or use parts of their codes:
   Stefan Grimme, W. Hujo, H. Kruse, P. Pracht,  : VdW corrections, initial TS optimization,
                  C. Bannwarth, S. Ehlert          DFT functionals, gCP, sTDA/sTD-DF
   Ed Valeev, F. Pavosevic, A. Kumar             : LibInt (2-el integral package), F12 methods
   Garnet Chan, S. Sharma, J. Yang, R. Olivares  : DMRG
   Ulf Ekstrom                                   : XCFun DFT Library
   Mihaly Kallay                                 : mrcc  (arbitrary order and MRCC methods)
   Jiri Pittner, Ondrej Demel                    : Mk-CCSD
   Frank Weinhold                                : gennbo (NPA and NBO analysis)
   Christopher J. Cramer and Donald G. Truhlar   : smd solvation model
   Lars Goerigk                                  : TD-DFT with DH, B97 family of functionals
   V. Asgeirsson, H. Jonsson                     : NEB implementation
   FAccTs GmbH                                   : IRC, NEB, NEB-TS, DLPNO-Multilevel, CI-OPT
                                                   MM, QMMM, 2- and 3-layer-ONIOM, Crystal-QMMM,
                                                   LR-CPCM, SF, NACMEs, symmetry and pop. for TD-DFT,
                                                   nearIR, NL-DFT gradient (VV10), updates on ESD,
                                                   ML-optimized integration grids
   S Lehtola, MJT Oliveira, MAL Marques          : LibXC Library
   Liviu Ungur et al                             : ANISO software


 Your calculation uses the libint2 library for the computation of 2-el integrals
 For citations please refer to: http://libint.valeyev.net

 Your ORCA version has been built with support for libXC version: 5.1.0
 For citations please refer to: https://tddft.org/programs/libxc/

 This ORCA versions uses:
   CBLAS   interface :  Fast vector & matrix operations
   LAPACKE interface :  Fast linear algebra routines
   SCALAPACK package :  Parallel linear algebra routines
   Shared memory     :  Shared parallel matrices
   BLAS/LAPACK       :  OpenBLAS 0.3.15  USE64BITINT DYNAMIC_ARCH NO_AFFINITY Haswell SINGLE_THREADED
        Core in use  :  Haswell
   Copyright (c) 2011-2014, The OpenBLAS Project




***************************************
The coordinates will be read from file: opt_full.xyz
***************************************


Your calculation utilizes the semiempirical GFN2-xTB method
Please cite in your paper:
C. Bannwarth, Ehlert S., S. Grimme,  J. Chem. Theory Comput., 15, (2019), 1652.
   

Preparing ONIOM calculation             ...         done
================================================================================

================================================================================
                                        WARNINGS
                       Please study these warnings very carefully!
================================================================================

WARNING: Gradients needed for Numerical Frequencies
  ===> : Setting RunTyp to EnGrad

WARNING: Found dipole moment calculation with XTB calculation
  ===> : Switching off dipole moment calculation


WARNING: TRAH-SCF for XTB is not implemented!
  ===> : Turning TRAH off!

================================================================================
                                       INPUT FILE
================================================================================
NAME = oniom.inp
|  1> !QM/XTB2 XTB2
|  2> !NumFreq
|  3> %pal
|  4> nprocs 28
|  5> end
|  6> %qmmm
|  7> QMAtoms { 0 1 2 6 7 8 9 10 11 18 19 20 21 22 23 33 34 35 45 46 47 51 52 53 54 55 56 72 73 74 75 76 77 81 82 83 90 91 92 108 109 110 111 112 113 114 115 116 117 118 119 132 133 134 135 136 137 138 139 140 165 166 167 177 178 179 183 184 185 198 199 200 216 217 218 225 226 227 240 241 242 243 244 245 249 250 251 261 262 263 264 265 266 267 268 269 273 274 275 285 286 287 291 292 293 321 322 323 324 325 326 363 364 365 390 391 392 399 400 401 408 409 410 420 421 422 426 427 428 435 436 437 441 442 443 471 472 473 474 475 476 483 484 485 504 505 506 522 523 524 564 565 566 567 568 569 573 574 575 582 583 584 591 592 593 597 598 599 600 601 602 } end 
|  8> ActiveAtoms { 0 1 2 6 7 8 9 10 11 18 19 20 21 22 23 33 34 35 45 46 47 51 52 53 54 55 56 72 73 74 75 76 77 81 82 83 90 91 92 108 109 110 111 112 113 114 115 116 117 118 119 132 133 134 135 136 137 138 139 140 165 166 167 177 178 179 183 184 185 198 199 200 216 217 218 225 226 227 240 241 242 243 244 245 249 250 251 261 262 263 264 265 266 267 268 269 273 274 275 285 286 287 291 292 293 321 322 323 324 325 326 363 364 365 390 391 392 399 400 401 408 409 410 420 421 422 426 427 428 435 436 437 441 442 443 471 472 473 474 475 476 483 484 485 504 505 506 522 523 524 564 565 566 567 568 569 573 574 575 582 583 584 591 592 593 597 598 599 600 601 602 } end 
|  9> ExtendActiveRegion no
| 10> end
| 11> *xyzfile 0 1 opt_full.xyz 
| 12> 
| 13> 
| 14>                          ****END OF INPUT****
================================================================================

------------------------------------------------------------------------------

                             **************************
                             *    2-layered ONIOM     *
                             **************************


------------------------------------------------------------------------------




Multiscale model                       ... QM1/QM2
QM2 method                             ... XTB2
Coupling Scheme                        ... subtractive
Embedding Scheme                       ... electrostatic
PrintLevel                             ... 1
Method for determining QM2 charges     ... Hirshfeld
Charge of total system                 ... 0
Charge alteration scheme               ... Charge shifting
Scaling factor for CS scheme           ... 0.06
Gradient projection scheme             ... Lever rule
Scaling factor for QM2 charges         ... 1.00
AutoFF method                          ... XTB2
AutoFF boundary                        ... no covalent bonds
Point charges in QM calc. from MM atoms... 432
              from charge shift scheme ... 0
Printing trajectories, xyz and allxyz files:
        QMMMRegion                     ... YES
        activeRegion                   ... YES
        activeRegionExt                ... NO
        qmRegion                       ... YES
        qm2Region                      ... NO
Parameter files:
        ORCA Forcefield Filename       ... oniom_L_QM2.ORCAFF.prms.tmp
        QM-LA bond distances Filename  ... oniom.H_DIST.prms.tmp
Forcefield type                        ... ORCA
Size of different subsystems (in atoms):
Size of QMMM System                    ... 603
Size of QM2 Subsystem                  ... 432
Size of QM1 Subsystem                  ... 171
Number of link atoms                   ... 0
Size of QM1 Subsystem plus link atoms  ... 171
Size of region for optimizer           ... 171
        optimized atoms = activeRegion ... 171
        fixed atoms (none)             ... 0
Composition of different systems (atoms start counting at 0):
QM1 Subsystem                          ...   0   1   2   6   7   8   9  10  11  18 
                                            19  20  21  22  23  33  34  35  45  46 
                                            47  51  52  53  54  55  56  72  73  74 
                                            75  76  77  81  82  83  90  91  92 108 
                                           109 110 111 112 113 114 115 116 117 118 
                                           119 132 133 134 135 136 137 138 139 140 
                                           165 166 167 177 178 179 183 184 185 198 
                                           199 200 216 217 218 225 226 227 240 241 
                                           242 243 244 245 249 250 251 261 262 263 
                                           264 265 266 267 268 269 273 274 275 285 
                                           286 287 291 292 293 321 322 323 324 325 
                                           326 363 364 365 390 391 392 399 400 401 
                                           408 409 410 420 421 422 426 427 428 435 
                                           436 437 441 442 443 471 472 473 474 475 
                                           476 483 484 485 504 505 506 522 523 524 
                                           564 565 566 567 568 569 573 574 575 582 
                                           583 584 591 592 593 597 598 599 600 601 
                                           602 
Active atoms                           ...   0   1   2   6   7   8   9  10  11  18 
                                            19  20  21  22  23  33  34  35  45  46 
                                            47  51  52  53  54  55  56  72  73  74 
                                            75  76  77  81  82  83  90  91  92 108 
                                           109 110 111 112 113 114 115 116 117 118 
                                           119 132 133 134 135 136 137 138 139 140 
                                           165 166 167 177 178 179 183 184 185 198 
                                           199 200 216 217 218 225 226 227 240 241 
                                           242 243 244 245 249 250 251 261 262 263 
                                           264 265 266 267 268 269 273 274 275 285 
                                           286 287 291 292 293 321 322 323 324 325 
                                           326 363 364 365 390 391 392 399 400 401 
                                           408 409 410 420 421 422 426 427 428 435 
                                           436 437 441 442 443 471 472 473 474 475 
                                           476 483 484 485 504 505 506 522 523 524 
                                           564 565 566 567 568 569 573 574 575 582 
                                           583 584 591 592 593 597 598 599 600 601 
                                           602 

                     *******************************
                     * Energy+Gradient Calculation *
                     *******************************

                    ************************************                      
                    *       QM/   XTB2 SP Energy       *                      
                    ************************************                      


------------------------------------------------------------------------------
                          XTB2 - FULL SYSTEM                         
------------------------------------------------------------------------------
Running XTB calculation
---------------------------------   --------------------
FINAL SINGLE POINT ENERGY (L-QM2)    -1023.447125451120
---------------------------------   --------------------
------------------------------------------------------------------------------
                                  XTB2 - SMALL SYSTEM                         
------------------------------------------------------------------------------
Running XTB calculation
---------------------------------   --------------------
FINAL SINGLE POINT ENERGY (S-QM2)     -290.255795443770
---------------------------------   --------------------
------------------------------------------------------------------------------
                                QM - SMALL SYSTEM                           
------------------------------------------------------------------------------
      -----------------------------------------------------------      
     |                   =====================                   |     
     |                           x T B                           |     
     |                   =====================                   |     
     |                         S. Grimme                         |     
     |          Mulliken Center for Theoretical Chemistry        |     
     |                    University of Bonn                     |     
      -----------------------------------------------------------      

   * xtb version 6.4.0 (d4b70c2) compiled by 'ehlert@majestix' on 2021-02-01

   xtb is free software: you can redistribute it and/or modify it under
   the terms of the GNU Lesser General Public License as published by
   the Free Software Foundation, either version 3 of the License, or
   (at your option) any later version.
   
   xtb is distributed in the hope that it will be useful,
   but WITHOUT ANY WARRANTY; without even the implied warranty of
   MERCHANTABILITY or FITNESS FOR A PARTICULAR PURPOSE.  See the
   GNU Lesser General Public License for more details.
   
   Cite this work as:
   * C. Bannwarth, E. Caldeweyher, S. Ehlert, A. Hansen, P. Pracht,
     J. Seibert, S. Spicher, S. Grimme, WIREs Comput. Mol. Sci., 2020,
     e01493. DOI: 10.1002/wcms.1493
   
   for GFN2-xTB:
   * C. Bannwarth, S. Ehlert and S. Grimme., J. Chem. Theory Comput., 2019,
     15, 1652-1671. DOI: 10.1021/acs.jctc.8b01176
   for GFN1-xTB:
   * S. Grimme, C. Bannwarth, P. Shushkov, J. Chem. Theory Comput., 2017,
     13, 1989-2009. DOI: 10.1021/acs.jctc.7b00118
   for GFN0-xTB:
   * P. Pracht, E. Caldeweyher, S. Ehlert, S. Grimme, ChemRxiv, 2019, preprint.
     DOI: 10.26434/chemrxiv.8326202.v1
   for GFN-FF:
   * S. Spicher and S. Grimme, Angew. Chem. Int. Ed., 2020, 59, 15665-15673.
     DOI: 10.1002/anie.202004239
   
   for DFT-D4:
   * E. Caldeweyher, C. Bannwarth and S. Grimme, J. Chem. Phys., 2017,
     147, 034112. DOI: 10.1063/1.4993215
   * E. Caldeweyher, S. Ehlert, A. Hansen, H. Neugebauer, S. Spicher,
     C. Bannwarth and S. Grimme, J. Chem. Phys., 2019, 150, 154122.
     DOI: 10.1063/1.5090222
   * E. Caldeweyher, J.-M. Mewes, S. Ehlert and S. Grimme, Phys. Chem. Chem. Phys.
     2020, 22, 8499-8512. DOI: 10.1039/D0CP00502A
   
   for sTDA-xTB:
   * S. Grimme and C. Bannwarth, J. Chem. Phys., 2016, 145, 054103.
     DOI: 10.1063/1.4959605
   
   in the mass-spec context:
   * V. Asgeirsson, C. Bauer and S. Grimme, Chem. Sci., 2017, 8, 4879.
     DOI: 10.1039/c7sc00601b
   * J. Koopman and S. Grimme, ACS Omega 2019, 4, 12, 15120-15133.
     DOI: 10.1021/acsomega.9b02011
   
   for metadynamics refer to:
   * S. Grimme, J. Chem. Theory Comput., 2019, 155, 2847-2862
     DOI: 10.1021/acs.jctc.9b00143
   
   with help from (in alphabetical order)
   P. Atkinson, C. Bannwarth, F. Bohle, G. Brandenburg, E. Caldeweyher
   M. Checinski, S. Dohm, S. Ehlert, S. Ehrlich, I. Gerasimov, J. Koopman
   C. Lavinge, S. Lehtola, F. März, M. Müller, F. Musil, H. Neugebauer
   J. Pisarek, P. Pracht, J. Seibert, P. Shushkov, S. Spicher, M. Stahn
   T. Strunk, J. Stückrath, T. Rose, and J. Unsleber
   
 * started run on 2022/04/11 at 10:12:38.373     

           -------------------------------------------------
          |                Calculation Setup                |
           -------------------------------------------------

          program call               : /work/spantaleone/apps/orca/ORCA_5.0.2/otool_xtb oniom_XTB.xyz --grad -c 0 -u 0 -P 28 --namespace oniom --input oniom_XTB.input.tmp --acc 1.000000
          hostname                   : n4059
          calculation namespace      : oniom
          coordinate file            : oniom_XTB.xyz
          omp threads                :                    28
          number of atoms            :                   171
          number of electrons        :                   456
          charge                     :                     0
          spin                       :                   0.0
          first test random number   :      0.64976340636140

   ID    Z sym.   atoms
    1    1 H      1, 3, 4, 6, 7, 9, 10, 12, 13, 15, 16, 18, 19, 21, 22, 24,
                  25, 27, 28, 30, 31, 33, 34, 36, 37, 39, 40, 42, 43, 45, 46,
                  48, 49, 51, 52, 54, 55, 57, 58, 60, 61, 63, 64, 66, 67, 69,
                  70, 72, 73, 75, 76, 78, 79, 81, 82, 84, 85, 87, 88, 90, 91,
                  93, 94, 96, 97, 99, 100, 102, 103, 105, 106, 108, 109, 111,
                  112, 114, 115, 117, 118, 120, 121, 123, 124, 126, 127, 129,
                  130, 132, 133, 135, 136, 138, 139, 141, 142, 144, 145, 147,
                  148, 150, 151, 153, 154, 156, 157, 159, 160, 162, 163, 165,
                  166, 168, 170, 171
    2    8 O      2, 5, 8, 11, 14, 17, 20, 23, 26, 29, 32, 35, 38, 41, 44,
                  47, 50, 53, 56, 59, 62, 65, 68, 71, 74, 77, 80, 83, 86, 89,
                  92, 95, 98, 101, 104, 107, 110, 113, 116, 119, 122, 125,
                  128, 131, 134, 137, 140, 143, 146, 149, 152, 155, 158, 161,
                  164, 167, 169

molecular fragmentation (1/2 indicates fragments):
111222222222222222222222222222222222222222222222222222222222222222222222
222222222222222222222222222222222222222222222222222222222222222222222222
222222222222222222222222222
# atoms in fragment 1/2:     3   168
 fragment masses (1/2) :       18.02     1008.86
CMA distance (Bohr)    :  10.276
constraining FC (au)   :  0.0500
########################################################################
[WARNING] Please study the warnings concerning your input carefully
-1- prog_main_parseArguments: Process number higher than OMP_NUM_THREADS, I hope you know what you are doing.
########################################################################

           -------------------------------------------------
          |                 G F N 2 - x T B                 |
           -------------------------------------------------

        Reference                      10.1021/acs.jctc.8b01176
      * Hamiltonian:
        H0-scaling (s, p, d)           1.850000    2.230000    2.230000
        zeta-weighting                 0.500000
      * Dispersion:
        s8                             2.700000
        a1                             0.520000
        a2                             5.000000
        s9                             5.000000
      * Repulsion:
        kExp                           1.500000    1.000000
        rExp                           1.000000
      * Coulomb:
        alpha                          2.000000
        third order                    shell-resolved
        anisotropic                    true
        a3                             3.000000
        a5                             4.000000
        cn-shift                       1.200000
        cn-exp                         4.000000
        max-rad                        5.000000


          ...................................................
          :                      SETUP                      :
          :.................................................:
          :  # basis functions                 342          :
          :  # atomic orbitals                 342          :
          :  # shells                          228          :
          :  # electrons                       456          :
          :  max. iterations                   250          :
          :  Hamiltonian                  GFN2-xTB          :
          :  restarted?                      false          :
          :  GBSA solvation                  false          :
          :  PC potential                     true          :
          :  -> # point charges                432          :
          :  -> sum of PC                0.0000021     e    :
          :  electronic temp.          300.0000000     K    :
          :  accuracy                    1.0000000          :
          :  -> integral cutoff          0.2500000E+02      :
          :  -> integral neglect         0.1000000E-07      :
          :  -> SCF convergence          0.1000000E-05 Eh   :
          :  -> wf. convergence          0.1000000E-03 e    :
          :  Broyden damping             0.4000000          :
          ...................................................

 iter      E             dE          RMSdq      gap      omega  full diag
   1   -291.8919673 -0.291892E+03  0.412E+00    9.18       0.0  T
   2   -291.9474721 -0.555048E-01  0.240E+00    9.26       1.0  T
   3   -291.9593693 -0.118972E-01  0.325E-01    8.69       1.0  T
   4   -291.9624225 -0.305322E-02  0.741E-02    8.97       1.0  T
   5   -291.9626073 -0.184760E-03  0.348E-02    8.89       1.0  T
   6   -291.9626293 -0.220565E-04  0.553E-03    8.90       1.4  T
   7   -291.9626303 -0.964119E-06  0.998E-04    8.90       7.7  T
   8   -291.9626303 -0.568986E-08  0.631E-04    8.90      12.1  T

   *** convergence criteria satisfied after 8 iterations ***

         #    Occupation            Energy/Eh            Energy/eV
      -------------------------------------------------------------
         1        2.0000           -0.7154855             -19.4694
       ...           ...                  ...                  ...
       222        2.0000           -0.4287656             -11.6673
       223        2.0000           -0.4275434             -11.6340
       224        2.0000           -0.4251698             -11.5695
       225        2.0000           -0.4242666             -11.5449
       226        2.0000           -0.4219948             -11.4831
       227        2.0000           -0.4201101             -11.4318
       228        2.0000           -0.4116440             -11.2014 (HOMO)
       229                         -0.0844805              -2.2988 (LUMO)
       230                         -0.0558615              -1.5201
       231                         -0.0443924              -1.2080
       232                         -0.0275711              -0.7502
       233                         -0.0177636              -0.4834
       ...                                ...                  ...
       342                          0.4067870              11.0692
      -------------------------------------------------------------
                  HL-Gap            0.3271635 Eh            8.9026 eV
             Fermi-level           -0.2480623 Eh           -6.7501 eV

 SCC (total)                   0 d,  0 h,  0 min,  0.298 sec
 SCC setup                      ...        0 min,  0.002 sec (  0.566%)
 Dispersion                     ...        0 min,  0.006 sec (  1.972%)
 classical contributions        ...        0 min,  0.000 sec (  0.079%)
 integral evaluation            ...        0 min,  0.077 sec ( 25.776%)
 iterations                     ...        0 min,  0.143 sec ( 48.105%)
 molecular gradient             ...        0 min,  0.068 sec ( 22.832%)
 printout                       ...        0 min,  0.002 sec (  0.597%)

         :::::::::::::::::::::::::::::::::::::::::::::::::::::
         ::                     SUMMARY                     ::
         :::::::::::::::::::::::::::::::::::::::::::::::::::::
         :: total energy            -290.255795443770 Eh    ::
         :: gradient norm              0.092164982349 Eh/a0 ::
         :: HOMO-LUMO gap              8.902571526734 eV    ::
         ::.................................................::
         :: SCC energy              -291.962630314519 Eh    ::
         :: -> isotropic ES            1.863374166015 Eh    ::
         :: -> anisotropic ES         -0.298064862575 Eh    ::
         :: -> anisotropic XC         -0.027829350272 Eh    ::
         :: -> dispersion             -0.130725134931 Eh    ::
         :: repulsion energy           1.693939761439 Eh    ::
         :: add. restraining           0.000000000000 Eh    ::
         :: total charge               0.000000000000 e     ::
         :::::::::::::::::::::::::::::::::::::::::::::::::::::


Property printout bound to 'properties.out'

           -------------------------------------------------
          | TOTAL ENERGY             -290.255795443770 Eh   |
          | GRADIENT NORM               0.092164982349 Eh/α |
          | HOMO-LUMO GAP               8.902571526734 eV   |
           -------------------------------------------------

------------------------------------------------------------------------
 * finished run on 2022/04/11 at 10:12:38.813     
------------------------------------------------------------------------
 total:
 * wall-time:     0 d,  0 h,  0 min,  0.440 sec
 *  cpu-time:     0 d,  0 h,  0 min, 11.802 sec
 * ratio c/w:    26.828 speedup
 SCF:
 * wall-time:     0 d,  0 h,  0 min,  0.331 sec
 *  cpu-time:     0 d,  0 h,  0 min,  9.223 sec
 * ratio c/w:    27.864 speedup


-------------------------   --------------------
FINAL SINGLE POINT ENERGY      -290.255795443770
-------------------------   --------------------



--------------------------------------   --------------------
FINAL SINGLE POINT ENERGY (QM/QM2)    -1023.447125451120
--------------------------------------   --------------------

                    ************************************                      
                    *QM/   XTB2 SP Gradient Calculation*                      
                    ************************************                      


------------------------------------------------------------------------------
                          XTB2 - FULL SYSTEM                         
------------------------------------------------------------------------------
Reading gradient                        ...         done
------------------------------------------------------------------------------
                                  XTB2 - SMALL SYSTEM                         
------------------------------------------------------------------------------
Reading gradient                        ...         done
------------------------------------------------------------------------------
                                     QM                                       
------------------------------------------------------------------------------


------------------
CARTESIAN GRADIENT (QM/MM)
------------------
   1   H   :    0.000001305   -0.000002453   -0.000002659
   2   O   :    0.000001440   -0.000000553   -0.000004767
   3   H   :   -0.000001271   -0.000002822    0.000002970
   4   H   :   -0.000001010   -0.000001894   -0.000004326
   5   O   :    0.000000183    0.000002082   -0.000002120
   6   H   :    0.000000224    0.000002559    0.000001807
   7   H   :    0.000002943    0.000001500    0.000000619
   8   O   :    0.000000675   -0.000001112   -0.000001104
   9   H   :   -0.000000213    0.000000884   -0.000000835
  10   H   :   -0.000000088    0.000001924    0.000000642
  11   O   :    0.000000766   -0.000000343    0.000000419
  12   H   :   -0.000000433    0.000000331    0.000000303
  13   H   :    0.000000235    0.000005427    0.000006204
  14   O   :   -0.000001788   -0.000001919   -0.000001280
  15   H   :    0.000000619    0.000002353   -0.000001356
  16   H   :   -0.000002769   -0.000003533   -0.000002007
  17   O   :    0.000002729    0.000000325    0.000000639
  18   H   :    0.000000700    0.000005912   -0.000002957
  19   H   :    0.000002014    0.000001411   -0.000005040
  20   O   :    0.000002419    0.000000774   -0.000000963
  21   H   :   -0.000000469    0.000001685   -0.000001549
  22   H   :   -0.000005171    0.000001140    0.000000817
  23   O   :   -0.000001986   -0.000002017   -0.000004873
  24   H   :    0.000000273   -0.000001416    0.000001103
  25   H   :    0.000000312   -0.000002205   -0.000005461
  26   O   :   -0.000004332    0.000000030   -0.000001794
  27   H   :    0.000000433   -0.000000668   -0.000002512
  28   H   :   -0.000001443    0.000000650    0.000004210
  29   O   :   -0.000001475    0.000002047    0.000001773
  30   H   :   -0.000001424    0.000000271   -0.000001042
  31   H   :    0.000002565   -0.000005625    0.000003277
  32   O   :    0.000002928   -0.000002860   -0.000001393
  33   H   :    0.000001029    0.000000378    0.000000550
  34   H   :    0.000005162   -0.000003891    0.000000336
  35   O   :   -0.000003234   -0.000001267   -0.000003798
  36   H   :    0.000002989    0.000003432   -0.000004491
  37   H   :   -0.000001072    0.000001041    0.000002429
  38   O   :   -0.000001443    0.000000948    0.000000203
  39   H   :    0.000003676   -0.000000898    0.000002336
  40   H   :    0.000001854    0.000003122    0.000000884
  41   O   :   -0.000001722   -0.000005163    0.000002205
  42   H   :    0.000002517   -0.000000607    0.000002433
  43   H   :    0.000001741    0.000003213   -0.000000709
  44   O   :   -0.000002963    0.000000133   -0.000001567
  45   H   :    0.000002543    0.000008249   -0.000001619
  46   H   :    0.000003054    0.000002959    0.000000740
  47   O   :    0.000001865    0.000001808    0.000002990
  48   H   :   -0.000007711    0.000004690    0.000002734
  49   H   :   -0.000002959    0.000004684   -0.000000920
  50   O   :    0.000002833    0.000003908   -0.000003985
  51   H   :    0.000001834   -0.000000267    0.000006670
  52   H   :    0.000002988    0.000000422    0.000003691
  53   O   :    0.000004109   -0.000001577   -0.000000689
  54   H   :    0.000002819   -0.000001833   -0.000007779
  55   H   :   -0.000003408    0.000002218   -0.000001504
  56   O   :    0.000001852   -0.000002086    0.000000976
  57   H   :    0.000002045    0.000000561    0.000001325
  58   H   :   -0.000004653   -0.000001439   -0.000000246
  59   O   :    0.000006145   -0.000002433   -0.000001593
  60   H   :   -0.000003122    0.000003952   -0.000000471
  61   H   :   -0.000001525   -0.000001593   -0.000006747
  62   O   :   -0.000005095   -0.000003382    0.000002371
  63   H   :   -0.000005895    0.000003893   -0.000001399
  64   H   :    0.000002943   -0.000000895   -0.000000341
  65   O   :    0.000003925   -0.000002309    0.000003307
  66   H   :   -0.000006798   -0.000000979   -0.000000918
  67   H   :    0.000003324   -0.000002196    0.000001613
  68   O   :    0.000000708   -0.000005340   -0.000000738
  69   H   :   -0.000003065   -0.000003684    0.000000101
  70   H   :   -0.000003244    0.000002751    0.000000380
  71   O   :   -0.000001156   -0.000007247   -0.000000972
  72   H   :    0.000000591   -0.000004783   -0.000003043
  73   H   :    0.000004630    0.000001984    0.000001895
  74   O   :    0.000002943   -0.000002136    0.000000858
  75   H   :    0.000001361   -0.000001854   -0.000001608
  76   H   :    0.000000157   -0.000001606   -0.000005499
  77   O   :   -0.000000476    0.000001600    0.000000598
  78   H   :    0.000000772   -0.000002108    0.000005236
  79   H   :   -0.000001333   -0.000001349    0.000001417
  80   O   :    0.000001988   -0.000000567   -0.000006307
  81   H   :   -0.000003370    0.000002658    0.000000924
  82   H   :   -0.000003634   -0.000000457    0.000000263
  83   O   :   -0.000002747   -0.000003351   -0.000005460
  84   H   :   -0.000001342   -0.000001795   -0.000004188
  85   H   :    0.000000908    0.000000630   -0.000001590
  86   O   :    0.000001748    0.000000171   -0.000001263
  87   H   :   -0.000001199   -0.000003980    0.000002597
  88   H   :    0.000003577    0.000001836    0.000002365
  89   O   :    0.000002123   -0.000002791    0.000001467
  90   H   :    0.000000342   -0.000003416    0.000004544
  91   H   :    0.000004569    0.000006158    0.000000152
  92   O   :    0.000004898   -0.000001552   -0.000003594
  93   H   :    0.000001868   -0.000001934   -0.000005604
  94   H   :   -0.000000973   -0.000003064    0.000001305
  95   O   :    0.000000774    0.000002041   -0.000005679
  96   H   :    0.000002482    0.000000328    0.000000297
  97   H   :    0.000002801   -0.000000115    0.000001160
  98   O   :   -0.000002406   -0.000002891   -0.000001127
  99   H   :   -0.000005048   -0.000000644    0.000003365
 100   H   :   -0.000002478   -0.000002651   -0.000006806
 101   O   :    0.000000601   -0.000005741   -0.000002590
 102   H   :   -0.000000784   -0.000002664   -0.000001515
 103   H   :   -0.000000653   -0.000001472   -0.000000409
 104   O   :    0.000001252   -0.000006576   -0.000000896
 105   H   :   -0.000000601    0.000002342   -0.000001756
 106   H   :   -0.000004891    0.000000247   -0.000000650
 107   O   :   -0.000000087    0.000000732    0.000000186
 108   H   :    0.000001288    0.000002477   -0.000001918
 109   H   :   -0.000001245   -0.000001582   -0.000000676
 110   O   :   -0.000002783    0.000000528    0.000001306
 111   H   :   -0.000002002    0.000004163    0.000002154
 112   H   :   -0.000001524    0.000002107   -0.000001571
 113   O   :   -0.000005993   -0.000003122    0.000000629
 114   H   :   -0.000003934    0.000000985   -0.000002898
 115   H   :   -0.000002658    0.000000023   -0.000002059
 116   O   :   -0.000001482   -0.000002499   -0.000000446
 117   H   :    0.000000121   -0.000002780   -0.000003679
 118   H   :   -0.000001087   -0.000002931    0.000000008
 119   O   :   -0.000000463   -0.000003767    0.000001625
 120   H   :    0.000000777   -0.000001406    0.000002557
 121   H   :   -0.000003530   -0.000002105    0.000002429
 122   O   :   -0.000001939   -0.000002126    0.000001650
 123   H   :   -0.000002524    0.000000853    0.000001069
 124   H   :   -0.000000937    0.000000780   -0.000000260
 125   O   :   -0.000000889   -0.000000273   -0.000002534
 126   H   :   -0.000002291   -0.000001061   -0.000002744
 127   H   :    0.000002477    0.000000163   -0.000001196
 128   O   :   -0.000001533    0.000000028   -0.000002334
 129   H   :   -0.000002161    0.000003034   -0.000001855
 130   H   :   -0.000001321   -0.000000290   -0.000000132
 131   O   :    0.000004172   -0.000004785   -0.000004042
 132   H   :   -0.000000289    0.000003073    0.000001264
 133   H   :    0.000001903    0.000000781    0.000000152
 134   O   :    0.000001667    0.000000768    0.000000260
 135   H   :    0.000001805    0.000000914   -0.000000980
 136   H   :    0.000005033    0.000000558   -0.000001970
 137   O   :    0.000000961   -0.000004241   -0.000000844
 138   H   :   -0.000004722   -0.000000202    0.000000633
 139   H   :    0.000002265   -0.000003235    0.000000276
 140   O   :    0.000005757   -0.000006761   -0.000005585
 141   H   :    0.000000455   -0.000003836   -0.000001703
 142   H   :    0.000001377   -0.000001927   -0.000005405
 143   O   :    0.000000145    0.000005140   -0.000001791
 144   H   :   -0.000000893    0.000000627   -0.000005845
 145   H   :   -0.000001624   -0.000000419   -0.000004461
 146   O   :   -0.000000619    0.000003861   -0.000001773
 147   H   :    0.000000988   -0.000004033   -0.000004061
 148   H   :    0.000001256    0.000004662   -0.000001625
 149   O   :   -0.000004855    0.000002461   -0.000000064
 150   H   :   -0.000004476   -0.000002016    0.000000148
 151   H   :    0.000003412   -0.000002487   -0.000004818
 152   O   :    0.000001730   -0.000003513   -0.000002741
 153   H   :   -0.000003844    0.000004122    0.000000060
 154   H   :   -0.000003873    0.000000753   -0.000004925
 155   O   :   -0.000000930   -0.000003563    0.000000503
 156   H   :    0.000002424   -0.000003844   -0.000000428
 157   H   :    0.000001274    0.000004161   -0.000003226
 158   O   :    0.000000709   -0.000000522   -0.000001301
 159   H   :    0.000004779   -0.000001496    0.000001766
 160   H   :   -0.000004394   -0.000001681    0.000003783
 161   O   :   -0.000001087    0.000004336   -0.000000939
 162   H   :    0.000002874    0.000003773   -0.000003193
 163   H   :    0.000003149    0.000000772    0.000005458
 164   O   :   -0.000000468    0.000004145   -0.000001970
 165   H   :    0.000000104   -0.000003015    0.000000365
 166   H   :   -0.000003243    0.000002028   -0.000003714
 167   O   :    0.000001221   -0.000004259    0.000000287
 168   H   :   -0.000000722    0.000002259   -0.000004007
 169   O   :   -0.000000161   -0.000001465   -0.000004660
 170   H   :   -0.000006768    0.000003452   -0.000004570
 171   H   :   -0.000000278    0.000001486   -0.000003358

Norm of the cartesian gradient     ...    0.000063336
RMS gradient                       ...    0.000002796
MAX gradient                       ...    0.000008249

----------------------------------------------------------------------------
                           ORCA NUMERICAL FREQUENCIES
                              (28-process run)
----------------------------------------------------------------------------

Number of atoms                ... 171
Central differences            ... used
Number of displacements        ... 1026
Numerical increment            ... 5.000e-03 bohr
IR-spectrum generation         ... on
Raman-spectrum generation      ... off
Surface Crossing Hessian       ... off

The output will be reduced. Please look at the following files:
SCF program output             ... >oniom.lastscf
Integral program output        ... >oniom.lastint
Gradient program output        ... >oniom.lastgrad
Dipole moment program output   ... >oniom.lastmom
AutoCI program output          ... >oniom.lastautoci

List of participating nodes    ...  oniom.hostnames
	<< Calculating on displaced geometry   6 (of 1026) >>
	<< Calculating on displaced geometry  20 (of 1026) >>
	<< Calculating on displaced geometry   5 (of 1026) >>
	<< Calculating on displaced geometry  12 (of 1026) >>
	<< Calculating on displaced geometry  18 (of 1026) >>
	<< Calculating on displaced geometry   1 (of 1026) >>
	<< Calculating on displaced geometry  16 (of 1026) >>
	<< Calculating on displaced geometry   2 (of 1026) >>
	<< Calculating on displaced geometry  11 (of 1026) >>
	<< Calculating on displaced geometry  25 (of 1026) >>
	<< Calculating on displaced geometry  23 (of 1026) >>
	<< Calculating on displaced geometry  22 (of 1026) >>
	<< Calculating on displaced geometry  14 (of 1026) >>
	<< Calculating on displaced geometry  26 (of 1026) >>
	<< Calculating on displaced geometry  13 (of 1026) >>
	<< Calculating on displaced geometry  21 (of 1026) >>
	<< Calculating on displaced geometry   4 (of 1026) >>
	<< Calculating on displaced geometry  15 (of 1026) >>
	<< Calculating on displaced geometry  24 (of 1026) >>
	<< Calculating on displaced geometry  19 (of 1026) >>
	<< Calculating on displaced geometry   8 (of 1026) >>
	<< Calculating on displaced geometry  10 (of 1026) >>
	<< Calculating on displaced geometry   7 (of 1026) >>
	<< Calculating on displaced geometry   3 (of 1026) >>
	<< Calculating on displaced geometry  17 (of 1026) >>
	<< Calculating on displaced geometry  28 (of 1026) >>
	<< Calculating on displaced geometry  27 (of 1026) >>
	<< Calculating on displaced geometry   9 (of 1026) >>
	<< Calculating on displaced geometry  29 (of 1026) >>
	<< Calculating on displaced geometry  30 (of 1026) >>
	<< Calculating on displaced geometry  31 (of 1026) >>
	<< Calculating on displaced geometry  32 (of 1026) >>
	<< Calculating on displaced geometry  33 (of 1026) >>
	<< Calculating on displaced geometry  34 (of 1026) >>
	<< Calculating on displaced geometry  35 (of 1026) >>
	<< Calculating on displaced geometry  36 (of 1026) >>
	<< Calculating on displaced geometry  37 (of 1026) >>
	<< Calculating on displaced geometry  38 (of 1026) >>
	<< Calculating on displaced geometry  39 (of 1026) >>
	<< Calculating on displaced geometry  40 (of 1026) >>
	<< Calculating on displaced geometry  43 (of 1026) >>
	<< Calculating on displaced geometry  41 (of 1026) >>
	<< Calculating on displaced geometry  42 (of 1026) >>
	<< Calculating on displaced geometry  44 (of 1026) >>
	<< Calculating on displaced geometry  45 (of 1026) >>
	<< Calculating on displaced geometry  46 (of 1026) >>
	<< Calculating on displaced geometry  49 (of 1026) >>
	<< Calculating on displaced geometry  50 (of 1026) >>
	<< Calculating on displaced geometry  48 (of 1026) >>
	<< Calculating on displaced geometry  51 (of 1026) >>
	<< Calculating on displaced geometry  47 (of 1026) >>
	<< Calculating on displaced geometry  53 (of 1026) >>
	<< Calculating on displaced geometry  56 (of 1026) >>
	<< Calculating on displaced geometry  54 (of 1026) >>
	<< Calculating on displaced geometry  55 (of 1026) >>
	<< Calculating on displaced geometry  52 (of 1026) >>
	<< Calculating on displaced geometry  57 (of 1026) >>
	<< Calculating on displaced geometry  59 (of 1026) >>
	<< Calculating on displaced geometry  58 (of 1026) >>
	<< Calculating on displaced geometry  60 (of 1026) >>
	<< Calculating on displaced geometry  62 (of 1026) >>
	<< Calculating on displaced geometry  64 (of 1026) >>
	<< Calculating on displaced geometry  63 (of 1026) >>
	<< Calculating on displaced geometry  61 (of 1026) >>
	<< Calculating on displaced geometry  65 (of 1026) >>
	<< Calculating on displaced geometry  66 (of 1026) >>
	<< Calculating on displaced geometry  67 (of 1026) >>
	<< Calculating on displaced geometry  68 (of 1026) >>
	<< Calculating on displaced geometry  70 (of 1026) >>
	<< Calculating on displaced geometry  69 (of 1026) >>
	<< Calculating on displaced geometry  72 (of 1026) >>
	<< Calculating on displaced geometry  71 (of 1026) >>
	<< Calculating on displaced geometry  73 (of 1026) >>
	<< Calculating on displaced geometry  75 (of 1026) >>
	<< Calculating on displaced geometry  76 (of 1026) >>
	<< Calculating on displaced geometry  77 (of 1026) >>
	<< Calculating on displaced geometry  78 (of 1026) >>
	<< Calculating on displaced geometry  80 (of 1026) >>
	<< Calculating on displaced geometry  83 (of 1026) >>
	<< Calculating on displaced geometry  74 (of 1026) >>
	<< Calculating on displaced geometry  82 (of 1026) >>
	<< Calculating on displaced geometry  79 (of 1026) >>
	<< Calculating on displaced geometry  84 (of 1026) >>
	<< Calculating on displaced geometry  81 (of 1026) >>
	<< Calculating on displaced geometry  85 (of 1026) >>
	<< Calculating on displaced geometry  86 (of 1026) >>
	<< Calculating on displaced geometry  87 (of 1026) >>
	<< Calculating on displaced geometry  89 (of 1026) >>
	<< Calculating on displaced geometry  90 (of 1026) >>
	<< Calculating on displaced geometry  88 (of 1026) >>
	<< Calculating on displaced geometry  92 (of 1026) >>
	<< Calculating on displaced geometry  91 (of 1026) >>
	<< Calculating on displaced geometry  93 (of 1026) >>
	<< Calculating on displaced geometry  94 (of 1026) >>
	<< Calculating on displaced geometry  95 (of 1026) >>
	<< Calculating on displaced geometry  96 (of 1026) >>
	<< Calculating on displaced geometry  97 (of 1026) >>
	<< Calculating on displaced geometry  98 (of 1026) >>
	<< Calculating on displaced geometry  99 (of 1026) >>
	<< Calculating on displaced geometry 100 (of 1026) >>
	<< Calculating on displaced geometry 101 (of 1026) >>
	<< Calculating on displaced geometry 102 (of 1026) >>
	<< Calculating on displaced geometry 103 (of 1026) >>
	<< Calculating on displaced geometry 104 (of 1026) >>
	<< Calculating on displaced geometry 105 (of 1026) >>
	<< Calculating on displaced geometry 107 (of 1026) >>
	<< Calculating on displaced geometry 108 (of 1026) >>
	<< Calculating on displaced geometry 110 (of 1026) >>
	<< Calculating on displaced geometry 106 (of 1026) >>
	<< Calculating on displaced geometry 109 (of 1026) >>
	<< Calculating on displaced geometry 111 (of 1026) >>
	<< Calculating on displaced geometry 112 (of 1026) >>
	<< Calculating on displaced geometry 113 (of 1026) >>
	<< Calculating on displaced geometry 114 (of 1026) >>
	<< Calculating on displaced geometry 115 (of 1026) >>
	<< Calculating on displaced geometry 116 (of 1026) >>
	<< Calculating on displaced geometry 117 (of 1026) >>
	<< Calculating on displaced geometry 119 (of 1026) >>
	<< Calculating on displaced geometry 118 (of 1026) >>
	<< Calculating on displaced geometry 121 (of 1026) >>
	<< Calculating on displaced geometry 120 (of 1026) >>
	<< Calculating on displaced geometry 124 (of 1026) >>
	<< Calculating on displaced geometry 122 (of 1026) >>
	<< Calculating on displaced geometry 126 (of 1026) >>
	<< Calculating on displaced geometry 127 (of 1026) >>
	<< Calculating on displaced geometry 123 (of 1026) >>
	<< Calculating on displaced geometry 125 (of 1026) >>
	<< Calculating on displaced geometry 128 (of 1026) >>
	<< Calculating on displaced geometry 129 (of 1026) >>
	<< Calculating on displaced geometry 130 (of 1026) >>
	<< Calculating on displaced geometry 132 (of 1026) >>
	<< Calculating on displaced geometry 133 (of 1026) >>
	<< Calculating on displaced geometry 134 (of 1026) >>
	<< Calculating on displaced geometry 135 (of 1026) >>
	<< Calculating on displaced geometry 136 (of 1026) >>
	<< Calculating on displaced geometry 131 (of 1026) >>
	<< Calculating on displaced geometry 139 (of 1026) >>
	<< Calculating on displaced geometry 138 (of 1026) >>
	<< Calculating on displaced geometry 137 (of 1026) >>
	<< Calculating on displaced geometry 140 (of 1026) >>
	<< Calculating on displaced geometry 141 (of 1026) >>
	<< Calculating on displaced geometry 142 (of 1026) >>
	<< Calculating on displaced geometry 144 (of 1026) >>
	<< Calculating on displaced geometry 143 (of 1026) >>
	<< Calculating on displaced geometry 145 (of 1026) >>
	<< Calculating on displaced geometry 147 (of 1026) >>
	<< Calculating on displaced geometry 148 (of 1026) >>
	<< Calculating on displaced geometry 149 (of 1026) >>
	<< Calculating on displaced geometry 146 (of 1026) >>
	<< Calculating on displaced geometry 151 (of 1026) >>
	<< Calculating on displaced geometry 152 (of 1026) >>
	<< Calculating on displaced geometry 153 (of 1026) >>
	<< Calculating on displaced geometry 154 (of 1026) >>
	<< Calculating on displaced geometry 156 (of 1026) >>
	<< Calculating on displaced geometry 155 (of 1026) >>
	<< Calculating on displaced geometry 150 (of 1026) >>
	<< Calculating on displaced geometry 157 (of 1026) >>
	<< Calculating on displaced geometry 161 (of 1026) >>
	<< Calculating on displaced geometry 158 (of 1026) >>
	<< Calculating on displaced geometry 160 (of 1026) >>
	<< Calculating on displaced geometry 159 (of 1026) >>
	<< Calculating on displaced geometry 162 (of 1026) >>
	<< Calculating on displaced geometry 164 (of 1026) >>
	<< Calculating on displaced geometry 166 (of 1026) >>
	<< Calculating on displaced geometry 165 (of 1026) >>
	<< Calculating on displaced geometry 163 (of 1026) >>
	<< Calculating on displaced geometry 167 (of 1026) >>
	<< Calculating on displaced geometry 168 (of 1026) >>
	<< Calculating on displaced geometry 169 (of 1026) >>
	<< Calculating on displaced geometry 170 (of 1026) >>
	<< Calculating on displaced geometry 171 (of 1026) >>
	<< Calculating on displaced geometry 172 (of 1026) >>
	<< Calculating on displaced geometry 173 (of 1026) >>
	<< Calculating on displaced geometry 174 (of 1026) >>
	<< Calculating on displaced geometry 175 (of 1026) >>
	<< Calculating on displaced geometry 176 (of 1026) >>
	<< Calculating on displaced geometry 177 (of 1026) >>
	<< Calculating on displaced geometry 178 (of 1026) >>
	<< Calculating on displaced geometry 179 (of 1026) >>
	<< Calculating on displaced geometry 180 (of 1026) >>
	<< Calculating on displaced geometry 182 (of 1026) >>
	<< Calculating on displaced geometry 183 (of 1026) >>
	<< Calculating on displaced geometry 181 (of 1026) >>
	<< Calculating on displaced geometry 184 (of 1026) >>
	<< Calculating on displaced geometry 185 (of 1026) >>
	<< Calculating on displaced geometry 186 (of 1026) >>
	<< Calculating on displaced geometry 187 (of 1026) >>
	<< Calculating on displaced geometry 189 (of 1026) >>
	<< Calculating on displaced geometry 188 (of 1026) >>
	<< Calculating on displaced geometry 190 (of 1026) >>
	<< Calculating on displaced geometry 191 (of 1026) >>
	<< Calculating on displaced geometry 193 (of 1026) >>
	<< Calculating on displaced geometry 192 (of 1026) >>
	<< Calculating on displaced geometry 194 (of 1026) >>
	<< Calculating on displaced geometry 195 (of 1026) >>
	<< Calculating on displaced geometry 196 (of 1026) >>
	<< Calculating on displaced geometry 197 (of 1026) >>
	<< Calculating on displaced geometry 198 (of 1026) >>
	<< Calculating on displaced geometry 199 (of 1026) >>
	<< Calculating on displaced geometry 200 (of 1026) >>
	<< Calculating on displaced geometry 201 (of 1026) >>
	<< Calculating on displaced geometry 203 (of 1026) >>
	<< Calculating on displaced geometry 202 (of 1026) >>
	<< Calculating on displaced geometry 204 (of 1026) >>
	<< Calculating on displaced geometry 205 (of 1026) >>
	<< Calculating on displaced geometry 206 (of 1026) >>
	<< Calculating on displaced geometry 207 (of 1026) >>
	<< Calculating on displaced geometry 208 (of 1026) >>
	<< Calculating on displaced geometry 209 (of 1026) >>
	<< Calculating on displaced geometry 211 (of 1026) >>
	<< Calculating on displaced geometry 210 (of 1026) >>
	<< Calculating on displaced geometry 212 (of 1026) >>
	<< Calculating on displaced geometry 216 (of 1026) >>
	<< Calculating on displaced geometry 214 (of 1026) >>
	<< Calculating on displaced geometry 215 (of 1026) >>
	<< Calculating on displaced geometry 213 (of 1026) >>
	<< Calculating on displaced geometry 217 (of 1026) >>
	<< Calculating on displaced geometry 219 (of 1026) >>
	<< Calculating on displaced geometry 220 (of 1026) >>
	<< Calculating on displaced geometry 218 (of 1026) >>
	<< Calculating on displaced geometry 221 (of 1026) >>
	<< Calculating on displaced geometry 222 (of 1026) >>
	<< Calculating on displaced geometry 223 (of 1026) >>
	<< Calculating on displaced geometry 224 (of 1026) >>
	<< Calculating on displaced geometry 226 (of 1026) >>
	<< Calculating on displaced geometry 225 (of 1026) >>
	<< Calculating on displaced geometry 227 (of 1026) >>
	<< Calculating on displaced geometry 228 (of 1026) >>
	<< Calculating on displaced geometry 229 (of 1026) >>
	<< Calculating on displaced geometry 230 (of 1026) >>
	<< Calculating on displaced geometry 231 (of 1026) >>
	<< Calculating on displaced geometry 233 (of 1026) >>
	<< Calculating on displaced geometry 232 (of 1026) >>
	<< Calculating on displaced geometry 234 (of 1026) >>
	<< Calculating on displaced geometry 237 (of 1026) >>
	<< Calculating on displaced geometry 236 (of 1026) >>
	<< Calculating on displaced geometry 235 (of 1026) >>
	<< Calculating on displaced geometry 239 (of 1026) >>
	<< Calculating on displaced geometry 240 (of 1026) >>
	<< Calculating on displaced geometry 238 (of 1026) >>
	<< Calculating on displaced geometry 241 (of 1026) >>
	<< Calculating on displaced geometry 243 (of 1026) >>
	<< Calculating on displaced geometry 242 (of 1026) >>
	<< Calculating on displaced geometry 246 (of 1026) >>
	<< Calculating on displaced geometry 247 (of 1026) >>
	<< Calculating on displaced geometry 244 (of 1026) >>
	<< Calculating on displaced geometry 245 (of 1026) >>
	<< Calculating on displaced geometry 248 (of 1026) >>
	<< Calculating on displaced geometry 249 (of 1026) >>
	<< Calculating on displaced geometry 250 (of 1026) >>
	<< Calculating on displaced geometry 251 (of 1026) >>
	<< Calculating on displaced geometry 252 (of 1026) >>
	<< Calculating on displaced geometry 253 (of 1026) >>
	<< Calculating on displaced geometry 255 (of 1026) >>
	<< Calculating on displaced geometry 254 (of 1026) >>
	<< Calculating on displaced geometry 257 (of 1026) >>
	<< Calculating on displaced geometry 256 (of 1026) >>
	<< Calculating on displaced geometry 258 (of 1026) >>
	<< Calculating on displaced geometry 259 (of 1026) >>
	<< Calculating on displaced geometry 260 (of 1026) >>
	<< Calculating on displaced geometry 261 (of 1026) >>
	<< Calculating on displaced geometry 262 (of 1026) >>
	<< Calculating on displaced geometry 263 (of 1026) >>
	<< Calculating on displaced geometry 264 (of 1026) >>
	<< Calculating on displaced geometry 265 (of 1026) >>
	<< Calculating on displaced geometry 266 (of 1026) >>
	<< Calculating on displaced geometry 267 (of 1026) >>
	<< Calculating on displaced geometry 268 (of 1026) >>
	<< Calculating on displaced geometry 269 (of 1026) >>
	<< Calculating on displaced geometry 271 (of 1026) >>
	<< Calculating on displaced geometry 270 (of 1026) >>
	<< Calculating on displaced geometry 272 (of 1026) >>
	<< Calculating on displaced geometry 273 (of 1026) >>
	<< Calculating on displaced geometry 274 (of 1026) >>
	<< Calculating on displaced geometry 275 (of 1026) >>
	<< Calculating on displaced geometry 276 (of 1026) >>
	<< Calculating on displaced geometry 278 (of 1026) >>
	<< Calculating on displaced geometry 279 (of 1026) >>
	<< Calculating on displaced geometry 277 (of 1026) >>
	<< Calculating on displaced geometry 280 (of 1026) >>
	<< Calculating on displaced geometry 281 (of 1026) >>
	<< Calculating on displaced geometry 282 (of 1026) >>
	<< Calculating on displaced geometry 283 (of 1026) >>
	<< Calculating on displaced geometry 284 (of 1026) >>
	<< Calculating on displaced geometry 285 (of 1026) >>
	<< Calculating on displaced geometry 286 (of 1026) >>
	<< Calculating on displaced geometry 287 (of 1026) >>
	<< Calculating on displaced geometry 289 (of 1026) >>
	<< Calculating on displaced geometry 288 (of 1026) >>
	<< Calculating on displaced geometry 290 (of 1026) >>
	<< Calculating on displaced geometry 291 (of 1026) >>
	<< Calculating on displaced geometry 292 (of 1026) >>
	<< Calculating on displaced geometry 293 (of 1026) >>
	<< Calculating on displaced geometry 295 (of 1026) >>
	<< Calculating on displaced geometry 296 (of 1026) >>
	<< Calculating on displaced geometry 294 (of 1026) >>
	<< Calculating on displaced geometry 298 (of 1026) >>
	<< Calculating on displaced geometry 299 (of 1026) >>
	<< Calculating on displaced geometry 300 (of 1026) >>
	<< Calculating on displaced geometry 297 (of 1026) >>
	<< Calculating on displaced geometry 301 (of 1026) >>
	<< Calculating on displaced geometry 302 (of 1026) >>
	<< Calculating on displaced geometry 303 (of 1026) >>
	<< Calculating on displaced geometry 305 (of 1026) >>
	<< Calculating on displaced geometry 304 (of 1026) >>
	<< Calculating on displaced geometry 306 (of 1026) >>
	<< Calculating on displaced geometry 307 (of 1026) >>
	<< Calculating on displaced geometry 308 (of 1026) >>
	<< Calculating on displaced geometry 309 (of 1026) >>
	<< Calculating on displaced geometry 310 (of 1026) >>
	<< Calculating on displaced geometry 311 (of 1026) >>
	<< Calculating on displaced geometry 312 (of 1026) >>
	<< Calculating on displaced geometry 313 (of 1026) >>
	<< Calculating on displaced geometry 314 (of 1026) >>
	<< Calculating on displaced geometry 315 (of 1026) >>
	<< Calculating on displaced geometry 316 (of 1026) >>
	<< Calculating on displaced geometry 317 (of 1026) >>
	<< Calculating on displaced geometry 318 (of 1026) >>
	<< Calculating on displaced geometry 319 (of 1026) >>
	<< Calculating on displaced geometry 320 (of 1026) >>
	<< Calculating on displaced geometry 322 (of 1026) >>
	<< Calculating on displaced geometry 323 (of 1026) >>
	<< Calculating on displaced geometry 321 (of 1026) >>
	<< Calculating on displaced geometry 324 (of 1026) >>
	<< Calculating on displaced geometry 325 (of 1026) >>
	<< Calculating on displaced geometry 326 (of 1026) >>
	<< Calculating on displaced geometry 327 (of 1026) >>
	<< Calculating on displaced geometry 328 (of 1026) >>
	<< Calculating on displaced geometry 329 (of 1026) >>
	<< Calculating on displaced geometry 330 (of 1026) >>
	<< Calculating on displaced geometry 333 (of 1026) >>
	<< Calculating on displaced geometry 331 (of 1026) >>
	<< Calculating on displaced geometry 334 (of 1026) >>
	<< Calculating on displaced geometry 332 (of 1026) >>
	<< Calculating on displaced geometry 335 (of 1026) >>
	<< Calculating on displaced geometry 336 (of 1026) >>
	<< Calculating on displaced geometry 337 (of 1026) >>
	<< Calculating on displaced geometry 338 (of 1026) >>
	<< Calculating on displaced geometry 339 (of 1026) >>
	<< Calculating on displaced geometry 340 (of 1026) >>
	<< Calculating on displaced geometry 341 (of 1026) >>
	<< Calculating on displaced geometry 342 (of 1026) >>
	<< Calculating on displaced geometry 343 (of 1026) >>
	<< Calculating on displaced geometry 344 (of 1026) >>
	<< Calculating on displaced geometry 346 (of 1026) >>
	<< Calculating on displaced geometry 345 (of 1026) >>
	<< Calculating on displaced geometry 347 (of 1026) >>
	<< Calculating on displaced geometry 348 (of 1026) >>
	<< Calculating on displaced geometry 349 (of 1026) >>
	<< Calculating on displaced geometry 350 (of 1026) >>
	<< Calculating on displaced geometry 351 (of 1026) >>
	<< Calculating on displaced geometry 352 (of 1026) >>
	<< Calculating on displaced geometry 354 (of 1026) >>
	<< Calculating on displaced geometry 355 (of 1026) >>
	<< Calculating on displaced geometry 356 (of 1026) >>
	<< Calculating on displaced geometry 353 (of 1026) >>
	<< Calculating on displaced geometry 357 (of 1026) >>
	<< Calculating on displaced geometry 359 (of 1026) >>
	<< Calculating on displaced geometry 358 (of 1026) >>
	<< Calculating on displaced geometry 360 (of 1026) >>
	<< Calculating on displaced geometry 361 (of 1026) >>
	<< Calculating on displaced geometry 362 (of 1026) >>
	<< Calculating on displaced geometry 363 (of 1026) >>
	<< Calculating on displaced geometry 364 (of 1026) >>
	<< Calculating on displaced geometry 365 (of 1026) >>
	<< Calculating on displaced geometry 366 (of 1026) >>
	<< Calculating on displaced geometry 367 (of 1026) >>
	<< Calculating on displaced geometry 368 (of 1026) >>
	<< Calculating on displaced geometry 369 (of 1026) >>
	<< Calculating on displaced geometry 370 (of 1026) >>
	<< Calculating on displaced geometry 371 (of 1026) >>
	<< Calculating on displaced geometry 372 (of 1026) >>
	<< Calculating on displaced geometry 373 (of 1026) >>
	<< Calculating on displaced geometry 374 (of 1026) >>
	<< Calculating on displaced geometry 375 (of 1026) >>
	<< Calculating on displaced geometry 377 (of 1026) >>
	<< Calculating on displaced geometry 378 (of 1026) >>
	<< Calculating on displaced geometry 379 (of 1026) >>
	<< Calculating on displaced geometry 376 (of 1026) >>
	<< Calculating on displaced geometry 381 (of 1026) >>
	<< Calculating on displaced geometry 382 (of 1026) >>
	<< Calculating on displaced geometry 380 (of 1026) >>
	<< Calculating on displaced geometry 383 (of 1026) >>
	<< Calculating on displaced geometry 384 (of 1026) >>
	<< Calculating on displaced geometry 385 (of 1026) >>
	<< Calculating on displaced geometry 386 (of 1026) >>
	<< Calculating on displaced geometry 387 (of 1026) >>
	<< Calculating on displaced geometry 389 (of 1026) >>
	<< Calculating on displaced geometry 390 (of 1026) >>
	<< Calculating on displaced geometry 391 (of 1026) >>
	<< Calculating on displaced geometry 388 (of 1026) >>
	<< Calculating on displaced geometry 392 (of 1026) >>
	<< Calculating on displaced geometry 393 (of 1026) >>
	<< Calculating on displaced geometry 394 (of 1026) >>
	<< Calculating on displaced geometry 395 (of 1026) >>
	<< Calculating on displaced geometry 396 (of 1026) >>
	<< Calculating on displaced geometry 397 (of 1026) >>
	<< Calculating on displaced geometry 398 (of 1026) >>
	<< Calculating on displaced geometry 399 (of 1026) >>
	<< Calculating on displaced geometry 400 (of 1026) >>
	<< Calculating on displaced geometry 402 (of 1026) >>
	<< Calculating on displaced geometry 401 (of 1026) >>
	<< Calculating on displaced geometry 403 (of 1026) >>
	<< Calculating on displaced geometry 407 (of 1026) >>
	<< Calculating on displaced geometry 404 (of 1026) >>
	<< Calculating on displaced geometry 406 (of 1026) >>
	<< Calculating on displaced geometry 405 (of 1026) >>
	<< Calculating on displaced geometry 409 (of 1026) >>
	<< Calculating on displaced geometry 408 (of 1026) >>
	<< Calculating on displaced geometry 410 (of 1026) >>
	<< Calculating on displaced geometry 411 (of 1026) >>
	<< Calculating on displaced geometry 412 (of 1026) >>
	<< Calculating on displaced geometry 413 (of 1026) >>
	<< Calculating on displaced geometry 415 (of 1026) >>
	<< Calculating on displaced geometry 414 (of 1026) >>
	<< Calculating on displaced geometry 417 (of 1026) >>
	<< Calculating on displaced geometry 416 (of 1026) >>
	<< Calculating on displaced geometry 418 (of 1026) >>
	<< Calculating on displaced geometry 419 (of 1026) >>
	<< Calculating on displaced geometry 420 (of 1026) >>
	<< Calculating on displaced geometry 421 (of 1026) >>
	<< Calculating on displaced geometry 422 (of 1026) >>
	<< Calculating on displaced geometry 423 (of 1026) >>
	<< Calculating on displaced geometry 424 (of 1026) >>
	<< Calculating on displaced geometry 425 (of 1026) >>
	<< Calculating on displaced geometry 426 (of 1026) >>
	<< Calculating on displaced geometry 427 (of 1026) >>
	<< Calculating on displaced geometry 428 (of 1026) >>
	<< Calculating on displaced geometry 430 (of 1026) >>
	<< Calculating on displaced geometry 431 (of 1026) >>
	<< Calculating on displaced geometry 429 (of 1026) >>
	<< Calculating on displaced geometry 432 (of 1026) >>
	<< Calculating on displaced geometry 433 (of 1026) >>
	<< Calculating on displaced geometry 435 (of 1026) >>
	<< Calculating on displaced geometry 434 (of 1026) >>
	<< Calculating on displaced geometry 437 (of 1026) >>
	<< Calculating on displaced geometry 439 (of 1026) >>
	<< Calculating on displaced geometry 436 (of 1026) >>
	<< Calculating on displaced geometry 438 (of 1026) >>
	<< Calculating on displaced geometry 440 (of 1026) >>
	<< Calculating on displaced geometry 441 (of 1026) >>
	<< Calculating on displaced geometry 442 (of 1026) >>
	<< Calculating on displaced geometry 443 (of 1026) >>
	<< Calculating on displaced geometry 445 (of 1026) >>
	<< Calculating on displaced geometry 446 (of 1026) >>
	<< Calculating on displaced geometry 444 (of 1026) >>
	<< Calculating on displaced geometry 447 (of 1026) >>
	<< Calculating on displaced geometry 448 (of 1026) >>
	<< Calculating on displaced geometry 449 (of 1026) >>
	<< Calculating on displaced geometry 450 (of 1026) >>
	<< Calculating on displaced geometry 451 (of 1026) >>
	<< Calculating on displaced geometry 452 (of 1026) >>
	<< Calculating on displaced geometry 453 (of 1026) >>
	<< Calculating on displaced geometry 454 (of 1026) >>
	<< Calculating on displaced geometry 455 (of 1026) >>
	<< Calculating on displaced geometry 456 (of 1026) >>
	<< Calculating on displaced geometry 457 (of 1026) >>
	<< Calculating on displaced geometry 458 (of 1026) >>
	<< Calculating on displaced geometry 460 (of 1026) >>
	<< Calculating on displaced geometry 461 (of 1026) >>
	<< Calculating on displaced geometry 464 (of 1026) >>
	<< Calculating on displaced geometry 459 (of 1026) >>
	<< Calculating on displaced geometry 462 (of 1026) >>
	<< Calculating on displaced geometry 463 (of 1026) >>
	<< Calculating on displaced geometry 465 (of 1026) >>
	<< Calculating on displaced geometry 466 (of 1026) >>
	<< Calculating on displaced geometry 467 (of 1026) >>
	<< Calculating on displaced geometry 468 (of 1026) >>
	<< Calculating on displaced geometry 469 (of 1026) >>
	<< Calculating on displaced geometry 470 (of 1026) >>
	<< Calculating on displaced geometry 472 (of 1026) >>
	<< Calculating on displaced geometry 471 (of 1026) >>
	<< Calculating on displaced geometry 473 (of 1026) >>
	<< Calculating on displaced geometry 475 (of 1026) >>
	<< Calculating on displaced geometry 474 (of 1026) >>
	<< Calculating on displaced geometry 476 (of 1026) >>
	<< Calculating on displaced geometry 477 (of 1026) >>
	<< Calculating on displaced geometry 478 (of 1026) >>
	<< Calculating on displaced geometry 479 (of 1026) >>
	<< Calculating on displaced geometry 480 (of 1026) >>
	<< Calculating on displaced geometry 482 (of 1026) >>
	<< Calculating on displaced geometry 483 (of 1026) >>
	<< Calculating on displaced geometry 481 (of 1026) >>
	<< Calculating on displaced geometry 484 (of 1026) >>
	<< Calculating on displaced geometry 485 (of 1026) >>
	<< Calculating on displaced geometry 486 (of 1026) >>
	<< Calculating on displaced geometry 487 (of 1026) >>
	<< Calculating on displaced geometry 488 (of 1026) >>
	<< Calculating on displaced geometry 489 (of 1026) >>
	<< Calculating on displaced geometry 490 (of 1026) >>
	<< Calculating on displaced geometry 491 (of 1026) >>
	<< Calculating on displaced geometry 492 (of 1026) >>
	<< Calculating on displaced geometry 494 (of 1026) >>
	<< Calculating on displaced geometry 497 (of 1026) >>
	<< Calculating on displaced geometry 495 (of 1026) >>
	<< Calculating on displaced geometry 496 (of 1026) >>
	<< Calculating on displaced geometry 493 (of 1026) >>
	<< Calculating on displaced geometry 498 (of 1026) >>
	<< Calculating on displaced geometry 500 (of 1026) >>
	<< Calculating on displaced geometry 499 (of 1026) >>
	<< Calculating on displaced geometry 501 (of 1026) >>
	<< Calculating on displaced geometry 502 (of 1026) >>
	<< Calculating on displaced geometry 503 (of 1026) >>
	<< Calculating on displaced geometry 504 (of 1026) >>
	<< Calculating on displaced geometry 505 (of 1026) >>
	<< Calculating on displaced geometry 506 (of 1026) >>
	<< Calculating on displaced geometry 507 (of 1026) >>
	<< Calculating on displaced geometry 508 (of 1026) >>
	<< Calculating on displaced geometry 509 (of 1026) >>
	<< Calculating on displaced geometry 511 (of 1026) >>
	<< Calculating on displaced geometry 512 (of 1026) >>
	<< Calculating on displaced geometry 510 (of 1026) >>
	<< Calculating on displaced geometry 513 (of 1026) >>
	<< Calculating on displaced geometry 514 (of 1026) >>
	<< Calculating on displaced geometry 515 (of 1026) >>
	<< Calculating on displaced geometry 516 (of 1026) >>
	<< Calculating on displaced geometry 517 (of 1026) >>
	<< Calculating on displaced geometry 518 (of 1026) >>
	<< Calculating on displaced geometry 519 (of 1026) >>
	<< Calculating on displaced geometry 520 (of 1026) >>
	<< Calculating on displaced geometry 521 (of 1026) >>
	<< Calculating on displaced geometry 522 (of 1026) >>
	<< Calculating on displaced geometry 523 (of 1026) >>
	<< Calculating on displaced geometry 525 (of 1026) >>
	<< Calculating on displaced geometry 524 (of 1026) >>
	<< Calculating on displaced geometry 526 (of 1026) >>
	<< Calculating on displaced geometry 527 (of 1026) >>
	<< Calculating on displaced geometry 528 (of 1026) >>
	<< Calculating on displaced geometry 529 (of 1026) >>
	<< Calculating on displaced geometry 530 (of 1026) >>
	<< Calculating on displaced geometry 531 (of 1026) >>
	<< Calculating on displaced geometry 532 (of 1026) >>
	<< Calculating on displaced geometry 533 (of 1026) >>
	<< Calculating on displaced geometry 534 (of 1026) >>
	<< Calculating on displaced geometry 535 (of 1026) >>
	<< Calculating on displaced geometry 536 (of 1026) >>
	<< Calculating on displaced geometry 537 (of 1026) >>
	<< Calculating on displaced geometry 538 (of 1026) >>
	<< Calculating on displaced geometry 539 (of 1026) >>
	<< Calculating on displaced geometry 540 (of 1026) >>
	<< Calculating on displaced geometry 541 (of 1026) >>
	<< Calculating on displaced geometry 542 (of 1026) >>
	<< Calculating on displaced geometry 543 (of 1026) >>
	<< Calculating on displaced geometry 544 (of 1026) >>
	<< Calculating on displaced geometry 545 (of 1026) >>
	<< Calculating on displaced geometry 546 (of 1026) >>
	<< Calculating on displaced geometry 548 (of 1026) >>
	<< Calculating on displaced geometry 549 (of 1026) >>
	<< Calculating on displaced geometry 547 (of 1026) >>
	<< Calculating on displaced geometry 550 (of 1026) >>
	<< Calculating on displaced geometry 551 (of 1026) >>
	<< Calculating on displaced geometry 552 (of 1026) >>
	<< Calculating on displaced geometry 553 (of 1026) >>
	<< Calculating on displaced geometry 554 (of 1026) >>
	<< Calculating on displaced geometry 557 (of 1026) >>
	<< Calculating on displaced geometry 556 (of 1026) >>
	<< Calculating on displaced geometry 555 (of 1026) >>
	<< Calculating on displaced geometry 560 (of 1026) >>
	<< Calculating on displaced geometry 559 (of 1026) >>
	<< Calculating on displaced geometry 558 (of 1026) >>
	<< Calculating on displaced geometry 561 (of 1026) >>
	<< Calculating on displaced geometry 562 (of 1026) >>
	<< Calculating on displaced geometry 563 (of 1026) >>
	<< Calculating on displaced geometry 564 (of 1026) >>
	<< Calculating on displaced geometry 565 (of 1026) >>
	<< Calculating on displaced geometry 566 (of 1026) >>
	<< Calculating on displaced geometry 567 (of 1026) >>
	<< Calculating on displaced geometry 568 (of 1026) >>
	<< Calculating on displaced geometry 569 (of 1026) >>
	<< Calculating on displaced geometry 570 (of 1026) >>
	<< Calculating on displaced geometry 571 (of 1026) >>
	<< Calculating on displaced geometry 573 (of 1026) >>
	<< Calculating on displaced geometry 574 (of 1026) >>
	<< Calculating on displaced geometry 575 (of 1026) >>
	<< Calculating on displaced geometry 576 (of 1026) >>
	<< Calculating on displaced geometry 572 (of 1026) >>
	<< Calculating on displaced geometry 577 (of 1026) >>
	<< Calculating on displaced geometry 578 (of 1026) >>
	<< Calculating on displaced geometry 579 (of 1026) >>
	<< Calculating on displaced geometry 580 (of 1026) >>
	<< Calculating on displaced geometry 581 (of 1026) >>
	<< Calculating on displaced geometry 584 (of 1026) >>
	<< Calculating on displaced geometry 583 (of 1026) >>
	<< Calculating on displaced geometry 582 (of 1026) >>
	<< Calculating on displaced geometry 585 (of 1026) >>
	<< Calculating on displaced geometry 586 (of 1026) >>
	<< Calculating on displaced geometry 587 (of 1026) >>
	<< Calculating on displaced geometry 588 (of 1026) >>
	<< Calculating on displaced geometry 589 (of 1026) >>
	<< Calculating on displaced geometry 590 (of 1026) >>
	<< Calculating on displaced geometry 591 (of 1026) >>
	<< Calculating on displaced geometry 592 (of 1026) >>
	<< Calculating on displaced geometry 593 (of 1026) >>
	<< Calculating on displaced geometry 594 (of 1026) >>
	<< Calculating on displaced geometry 596 (of 1026) >>
	<< Calculating on displaced geometry 595 (of 1026) >>
	<< Calculating on displaced geometry 597 (of 1026) >>
	<< Calculating on displaced geometry 598 (of 1026) >>
	<< Calculating on displaced geometry 600 (of 1026) >>
	<< Calculating on displaced geometry 599 (of 1026) >>
	<< Calculating on displaced geometry 601 (of 1026) >>
	<< Calculating on displaced geometry 602 (of 1026) >>
	<< Calculating on displaced geometry 603 (of 1026) >>
	<< Calculating on displaced geometry 604 (of 1026) >>
	<< Calculating on displaced geometry 605 (of 1026) >>
	<< Calculating on displaced geometry 606 (of 1026) >>
	<< Calculating on displaced geometry 607 (of 1026) >>
	<< Calculating on displaced geometry 608 (of 1026) >>
	<< Calculating on displaced geometry 609 (of 1026) >>
	<< Calculating on displaced geometry 611 (of 1026) >>
	<< Calculating on displaced geometry 610 (of 1026) >>
	<< Calculating on displaced geometry 612 (of 1026) >>
	<< Calculating on displaced geometry 613 (of 1026) >>
	<< Calculating on displaced geometry 615 (of 1026) >>
	<< Calculating on displaced geometry 616 (of 1026) >>
	<< Calculating on displaced geometry 614 (of 1026) >>
	<< Calculating on displaced geometry 617 (of 1026) >>
	<< Calculating on displaced geometry 618 (of 1026) >>
	<< Calculating on displaced geometry 619 (of 1026) >>
	<< Calculating on displaced geometry 621 (of 1026) >>
	<< Calculating on displaced geometry 620 (of 1026) >>
	<< Calculating on displaced geometry 622 (of 1026) >>
	<< Calculating on displaced geometry 623 (of 1026) >>
	<< Calculating on displaced geometry 624 (of 1026) >>
	<< Calculating on displaced geometry 625 (of 1026) >>
	<< Calculating on displaced geometry 626 (of 1026) >>
	<< Calculating on displaced geometry 627 (of 1026) >>
	<< Calculating on displaced geometry 628 (of 1026) >>
	<< Calculating on displaced geometry 629 (of 1026) >>
	<< Calculating on displaced geometry 630 (of 1026) >>
	<< Calculating on displaced geometry 631 (of 1026) >>
	<< Calculating on displaced geometry 633 (of 1026) >>
	<< Calculating on displaced geometry 634 (of 1026) >>
	<< Calculating on displaced geometry 632 (of 1026) >>
	<< Calculating on displaced geometry 635 (of 1026) >>
	<< Calculating on displaced geometry 636 (of 1026) >>
	<< Calculating on displaced geometry 637 (of 1026) >>
	<< Calculating on displaced geometry 638 (of 1026) >>
	<< Calculating on displaced geometry 640 (of 1026) >>
	<< Calculating on displaced geometry 639 (of 1026) >>
	<< Calculating on displaced geometry 641 (of 1026) >>
	<< Calculating on displaced geometry 642 (of 1026) >>
	<< Calculating on displaced geometry 644 (of 1026) >>
	<< Calculating on displaced geometry 643 (of 1026) >>
	<< Calculating on displaced geometry 645 (of 1026) >>
	<< Calculating on displaced geometry 646 (of 1026) >>
	<< Calculating on displaced geometry 647 (of 1026) >>
	<< Calculating on displaced geometry 648 (of 1026) >>
	<< Calculating on displaced geometry 649 (of 1026) >>
	<< Calculating on displaced geometry 650 (of 1026) >>
	<< Calculating on displaced geometry 651 (of 1026) >>
	<< Calculating on displaced geometry 653 (of 1026) >>
	<< Calculating on displaced geometry 652 (of 1026) >>
	<< Calculating on displaced geometry 654 (of 1026) >>
	<< Calculating on displaced geometry 655 (of 1026) >>
	<< Calculating on displaced geometry 656 (of 1026) >>
	<< Calculating on displaced geometry 657 (of 1026) >>
	<< Calculating on displaced geometry 658 (of 1026) >>
	<< Calculating on displaced geometry 659 (of 1026) >>
	<< Calculating on displaced geometry 660 (of 1026) >>
	<< Calculating on displaced geometry 662 (of 1026) >>
	<< Calculating on displaced geometry 663 (of 1026) >>
	<< Calculating on displaced geometry 661 (of 1026) >>
	<< Calculating on displaced geometry 665 (of 1026) >>
	<< Calculating on displaced geometry 664 (of 1026) >>
	<< Calculating on displaced geometry 666 (of 1026) >>
	<< Calculating on displaced geometry 668 (of 1026) >>
	<< Calculating on displaced geometry 667 (of 1026) >>
	<< Calculating on displaced geometry 669 (of 1026) >>
	<< Calculating on displaced geometry 670 (of 1026) >>
	<< Calculating on displaced geometry 671 (of 1026) >>
	<< Calculating on displaced geometry 672 (of 1026) >>
[...]
freq.     377.25  E(vib)   ...       0.21 
freq.     384.08  E(vib)   ...       0.20 
freq.     386.05  E(vib)   ...       0.20 
freq.     387.74  E(vib)   ...       0.20 
freq.     390.70  E(vib)   ...       0.20 
freq.     397.50  E(vib)   ...       0.20 
freq.     398.77  E(vib)   ...       0.19 
freq.     401.60  E(vib)   ...       0.19 
freq.     403.70  E(vib)   ...       0.19 
freq.     410.60  E(vib)   ...       0.19 
freq.     414.31  E(vib)   ...       0.19 
freq.     418.07  E(vib)   ...       0.18 
freq.     422.80  E(vib)   ...       0.18 
freq.     424.29  E(vib)   ...       0.18 
freq.     430.45  E(vib)   ...       0.18 
freq.     433.12  E(vib)   ...       0.17 
freq.     435.41  E(vib)   ...       0.17 
freq.     443.74  E(vib)   ...       0.17 
freq.     445.87  E(vib)   ...       0.17 
freq.     450.33  E(vib)   ...       0.17 
freq.     459.98  E(vib)   ...       0.16 
freq.     460.72  E(vib)   ...       0.16 
freq.     467.57  E(vib)   ...       0.16 
freq.     476.99  E(vib)   ...       0.15 
freq.     479.61  E(vib)   ...       0.15 
freq.     482.47  E(vib)   ...       0.15 
freq.     483.12  E(vib)   ...       0.15 
freq.     484.51  E(vib)   ...       0.15 
freq.     487.32  E(vib)   ...       0.15 
freq.     488.76  E(vib)   ...       0.15 
freq.     490.75  E(vib)   ...       0.14 
freq.     494.33  E(vib)   ...       0.14 
freq.     498.13  E(vib)   ...       0.14 
freq.     499.16  E(vib)   ...       0.14 
freq.     503.23  E(vib)   ...       0.14 
freq.     508.08  E(vib)   ...       0.14 
freq.     511.89  E(vib)   ...       0.14 
freq.     517.48  E(vib)   ...       0.13 
freq.     521.56  E(vib)   ...       0.13 
freq.     524.58  E(vib)   ...       0.13 
freq.     526.02  E(vib)   ...       0.13 
freq.     529.59  E(vib)   ...       0.13 
freq.     531.27  E(vib)   ...       0.13 
freq.     535.82  E(vib)   ...       0.12 
freq.     538.00  E(vib)   ...       0.12 
freq.     539.10  E(vib)   ...       0.12 
freq.     544.16  E(vib)   ...       0.12 
freq.     545.42  E(vib)   ...       0.12 
freq.     548.50  E(vib)   ...       0.12 
freq.     549.92  E(vib)   ...       0.12 
freq.     550.73  E(vib)   ...       0.12 
freq.     550.82  E(vib)   ...       0.12 
freq.     554.61  E(vib)   ...       0.12 
freq.     557.31  E(vib)   ...       0.12 
freq.     562.70  E(vib)   ...       0.11 
freq.     565.28  E(vib)   ...       0.11 
freq.     567.06  E(vib)   ...       0.11 
freq.     569.98  E(vib)   ...       0.11 
freq.     571.25  E(vib)   ...       0.11 
freq.     574.45  E(vib)   ...       0.11 
freq.     575.57  E(vib)   ...       0.11 
freq.     578.84  E(vib)   ...       0.11 
freq.     580.69  E(vib)   ...       0.11 
freq.     582.54  E(vib)   ...       0.11 
freq.     586.87  E(vib)   ...       0.11 
freq.     588.72  E(vib)   ...       0.10 
freq.     591.04  E(vib)   ...       0.10 
freq.     592.47  E(vib)   ...       0.10 
freq.     597.71  E(vib)   ...       0.10 
freq.     599.20  E(vib)   ...       0.10 
freq.     601.80  E(vib)   ...       0.10 
freq.     603.01  E(vib)   ...       0.10 
freq.     605.05  E(vib)   ...       0.10 
freq.     608.79  E(vib)   ...       0.10 
freq.     610.92  E(vib)   ...       0.10 
freq.     615.91  E(vib)   ...       0.10 
freq.     617.83  E(vib)   ...       0.09 
freq.     621.36  E(vib)   ...       0.09 
freq.     622.55  E(vib)   ...       0.09 
freq.     623.56  E(vib)   ...       0.09 
freq.     626.10  E(vib)   ...       0.09 
freq.     627.89  E(vib)   ...       0.09 
freq.     629.30  E(vib)   ...       0.09 
freq.     630.97  E(vib)   ...       0.09 
freq.     633.10  E(vib)   ...       0.09 
freq.     634.80  E(vib)   ...       0.09 
freq.     636.62  E(vib)   ...       0.09 
freq.     639.09  E(vib)   ...       0.09 
freq.     646.22  E(vib)   ...       0.09 
freq.     650.03  E(vib)   ...       0.08 
freq.     651.47  E(vib)   ...       0.08 
freq.     657.11  E(vib)   ...       0.08 
freq.     661.59  E(vib)   ...       0.08 
freq.     662.04  E(vib)   ...       0.08 
freq.     666.71  E(vib)   ...       0.08 
freq.     669.62  E(vib)   ...       0.08 
freq.     670.19  E(vib)   ...       0.08 
freq.     672.69  E(vib)   ...       0.08 
freq.     674.78  E(vib)   ...       0.08 
freq.     676.92  E(vib)   ...       0.08 
freq.     678.63  E(vib)   ...       0.08 
freq.     681.61  E(vib)   ...       0.08 
freq.     684.29  E(vib)   ...       0.07 
freq.     687.05  E(vib)   ...       0.07 
freq.     689.53  E(vib)   ...       0.07 
freq.     690.64  E(vib)   ...       0.07 
freq.     693.26  E(vib)   ...       0.07 
freq.     696.42  E(vib)   ...       0.07 
freq.     700.39  E(vib)   ...       0.07 
freq.     703.25  E(vib)   ...       0.07 
freq.     710.07  E(vib)   ...       0.07 
freq.     712.00  E(vib)   ...       0.07 
freq.     715.43  E(vib)   ...       0.07 
freq.     717.94  E(vib)   ...       0.07 
freq.     719.42  E(vib)   ...       0.07 
freq.     721.51  E(vib)   ...       0.07 
freq.     723.35  E(vib)   ...       0.07 
freq.     725.59  E(vib)   ...       0.06 
freq.     731.09  E(vib)   ...       0.06 
freq.     734.62  E(vib)   ...       0.06 
freq.     736.00  E(vib)   ...       0.06 
freq.     741.22  E(vib)   ...       0.06 
freq.     743.05  E(vib)   ...       0.06 
freq.     747.28  E(vib)   ...       0.06 
freq.     750.69  E(vib)   ...       0.06 
freq.     753.56  E(vib)   ...       0.06 
freq.     763.19  E(vib)   ...       0.06 
freq.     766.18  E(vib)   ...       0.06 
freq.     768.02  E(vib)   ...       0.06 
freq.     772.81  E(vib)   ...       0.05 
freq.     782.65  E(vib)   ...       0.05 
freq.     785.41  E(vib)   ...       0.05 
freq.     790.09  E(vib)   ...       0.05 
freq.     791.38  E(vib)   ...       0.05 
freq.     793.18  E(vib)   ...       0.05 
freq.     796.16  E(vib)   ...       0.05 
freq.     799.04  E(vib)   ...       0.05 
freq.     801.21  E(vib)   ...       0.05 
freq.     804.98  E(vib)   ...       0.05 
freq.     808.79  E(vib)   ...       0.05 
freq.     812.82  E(vib)   ...       0.05 
freq.     819.42  E(vib)   ...       0.05 
freq.     821.43  E(vib)   ...       0.05 
freq.     822.83  E(vib)   ...       0.05 
freq.     824.75  E(vib)   ...       0.04 
freq.     833.23  E(vib)   ...       0.04 
freq.     842.99  E(vib)   ...       0.04 
freq.     844.24  E(vib)   ...       0.04 
freq.     847.37  E(vib)   ...       0.04 
freq.     850.54  E(vib)   ...       0.04 
freq.     857.08  E(vib)   ...       0.04 
freq.     860.76  E(vib)   ...       0.04 
freq.     877.72  E(vib)   ...       0.04 
freq.     881.37  E(vib)   ...       0.04 
freq.     885.17  E(vib)   ...       0.04 
freq.     891.98  E(vib)   ...       0.03 
freq.     894.08  E(vib)   ...       0.03 
freq.     903.89  E(vib)   ...       0.03 
freq.     907.81  E(vib)   ...       0.03 
freq.     918.30  E(vib)   ...       0.03 
freq.     925.03  E(vib)   ...       0.03 
freq.     930.48  E(vib)   ...       0.03 
freq.     931.63  E(vib)   ...       0.03 
freq.     937.97  E(vib)   ...       0.03 
freq.     950.83  E(vib)   ...       0.03 
freq.     954.42  E(vib)   ...       0.03 
freq.     957.85  E(vib)   ...       0.03 
freq.     968.93  E(vib)   ...       0.03 
freq.     973.50  E(vib)   ...       0.03 
freq.     991.55  E(vib)   ...       0.02 
freq.    1003.18  E(vib)   ...       0.02 
freq.    1016.57  E(vib)   ...       0.02 
freq.    1432.30  E(vib)   ...       0.00 
freq.    1444.25  E(vib)   ...       0.00 
freq.    1452.49  E(vib)   ...       0.00 
freq.    1456.11  E(vib)   ...       0.00 
freq.    1468.57  E(vib)   ...       0.00 
freq.    1471.56  E(vib)   ...       0.00 
freq.    1478.26  E(vib)   ...       0.00 
freq.    1479.69  E(vib)   ...       0.00 
freq.    1480.83  E(vib)   ...       0.00 
freq.    1483.47  E(vib)   ...       0.00 
freq.    1485.31  E(vib)   ...       0.00 
freq.    1490.29  E(vib)   ...       0.00 
freq.    1493.16  E(vib)   ...       0.00 
freq.    1495.62  E(vib)   ...       0.00 
freq.    1499.13  E(vib)   ...       0.00 
freq.    1500.25  E(vib)   ...       0.00 
freq.    1501.14  E(vib)   ...       0.00 
freq.    1502.41  E(vib)   ...       0.00 
freq.    1503.67  E(vib)   ...       0.00 
freq.    1505.72  E(vib)   ...       0.00 
freq.    1508.74  E(vib)   ...       0.00 
freq.    1510.71  E(vib)   ...       0.00 
freq.    1513.59  E(vib)   ...       0.00 
freq.    1514.05  E(vib)   ...       0.00 
freq.    1514.33  E(vib)   ...       0.00 
freq.    1516.81  E(vib)   ...       0.00 
freq.    1518.33  E(vib)   ...       0.00 
freq.    1519.70  E(vib)   ...       0.00 
freq.    1521.26  E(vib)   ...       0.00 
freq.    1521.85  E(vib)   ...       0.00 
freq.    1522.43  E(vib)   ...       0.00 
freq.    1522.96  E(vib)   ...       0.00 
freq.    1524.83  E(vib)   ...       0.00 
freq.    1528.51  E(vib)   ...       0.00 
freq.    1529.36  E(vib)   ...       0.00 
freq.    1531.35  E(vib)   ...       0.00 
freq.    1532.10  E(vib)   ...       0.00 
freq.    1533.02  E(vib)   ...       0.00 
freq.    1534.37  E(vib)   ...       0.00 
freq.    1535.43  E(vib)   ...       0.00 
freq.    1537.51  E(vib)   ...       0.00 
freq.    1537.83  E(vib)   ...       0.00 
freq.    1538.58  E(vib)   ...       0.00 
freq.    1541.15  E(vib)   ...       0.00 
freq.    1543.17  E(vib)   ...       0.00 
freq.    1544.22  E(vib)   ...       0.00 
freq.    1546.88  E(vib)   ...       0.00 
freq.    1547.83  E(vib)   ...       0.00 
freq.    1549.40  E(vib)   ...       0.00 
freq.    1550.34  E(vib)   ...       0.00 
freq.    1551.38  E(vib)   ...       0.00 
freq.    1554.39  E(vib)   ...       0.00 
freq.    1558.25  E(vib)   ...       0.00 
freq.    1560.28  E(vib)   ...       0.00 
freq.    1562.66  E(vib)   ...       0.00 
freq.    1570.50  E(vib)   ...       0.00 
freq.    1586.37  E(vib)   ...       0.00 
freq.    2919.26  E(vib)   ...       0.00 
freq.    2923.92  E(vib)   ...       0.00 
freq.    2985.22  E(vib)   ...       0.00 
freq.    2992.40  E(vib)   ...       0.00 
freq.    3009.73  E(vib)   ...       0.00 
freq.    3021.18  E(vib)   ...       0.00 
freq.    3028.21  E(vib)   ...       0.00 
freq.    3048.58  E(vib)   ...       0.00 
freq.    3052.20  E(vib)   ...       0.00 
freq.    3057.93  E(vib)   ...       0.00 
freq.    3061.78  E(vib)   ...       0.00 
freq.    3071.89  E(vib)   ...       0.00 
freq.    3078.39  E(vib)   ...       0.00 
freq.    3081.31  E(vib)   ...       0.00 
freq.    3101.90  E(vib)   ...       0.00 
freq.    3107.06  E(vib)   ...       0.00 
freq.    3128.17  E(vib)   ...       0.00 
freq.    3134.42  E(vib)   ...       0.00 
freq.    3135.13  E(vib)   ...       0.00 
freq.    3137.31  E(vib)   ...       0.00 
freq.    3139.37  E(vib)   ...       0.00 
freq.    3142.97  E(vib)   ...       0.00 
freq.    3149.77  E(vib)   ...       0.00 
freq.    3152.86  E(vib)   ...       0.00 
freq.    3158.80  E(vib)   ...       0.00 
freq.    3159.31  E(vib)   ...       0.00 
freq.    3169.03  E(vib)   ...       0.00 
freq.    3174.78  E(vib)   ...       0.00 
freq.    3175.45  E(vib)   ...       0.00 
freq.    3179.33  E(vib)   ...       0.00 
freq.    3184.85  E(vib)   ...       0.00 
freq.    3190.48  E(vib)   ...       0.00 
freq.    3193.71  E(vib)   ...       0.00 
freq.    3203.60  E(vib)   ...       0.00 
freq.    3205.90  E(vib)   ...       0.00 
freq.    3209.43  E(vib)   ...       0.00 
freq.    3215.22  E(vib)   ...       0.00 
freq.    3225.77  E(vib)   ...       0.00 
freq.    3227.93  E(vib)   ...       0.00 
freq.    3235.23  E(vib)   ...       0.00 
freq.    3241.73  E(vib)   ...       0.00 
freq.    3249.62  E(vib)   ...       0.00 
freq.    3252.75  E(vib)   ...       0.00 
freq.    3258.12  E(vib)   ...       0.00 
freq.    3258.81  E(vib)   ...       0.00 
freq.    3263.54  E(vib)   ...       0.00 
freq.    3265.83  E(vib)   ...       0.00 
freq.    3271.52  E(vib)   ...       0.00 
freq.    3273.05  E(vib)   ...       0.00 
freq.    3277.28  E(vib)   ...       0.00 
freq.    3278.60  E(vib)   ...       0.00 
freq.    3282.82  E(vib)   ...       0.00 
freq.    3294.21  E(vib)   ...       0.00 
freq.    3294.84  E(vib)   ...       0.00 
freq.    3301.92  E(vib)   ...       0.00 
freq.    3308.62  E(vib)   ...       0.00 
freq.    3316.80  E(vib)   ...       0.00 
freq.    3318.91  E(vib)   ...       0.00 
freq.    3325.34  E(vib)   ...       0.00 
freq.    3329.63  E(vib)   ...       0.00 
freq.    3331.54  E(vib)   ...       0.00 
freq.    3338.10  E(vib)   ...       0.00 
freq.    3341.20  E(vib)   ...       0.00 
freq.    3349.40  E(vib)   ...       0.00 
freq.    3351.98  E(vib)   ...       0.00 
freq.    3353.50  E(vib)   ...       0.00 
freq.    3358.31  E(vib)   ...       0.00 
freq.    3362.93  E(vib)   ...       0.00 
freq.    3372.48  E(vib)   ...       0.00 
freq.    3377.98  E(vib)   ...       0.00 
freq.    3378.21  E(vib)   ...       0.00 
freq.    3379.85  E(vib)   ...       0.00 
freq.    3387.46  E(vib)   ...       0.00 
freq.    3390.08  E(vib)   ...       0.00 
freq.    3393.30  E(vib)   ...       0.00 
freq.    3397.16  E(vib)   ...       0.00 
freq.    3398.37  E(vib)   ...       0.00 
freq.    3402.86  E(vib)   ...       0.00 
freq.    3407.46  E(vib)   ...       0.00 
freq.    3410.58  E(vib)   ...       0.00 
freq.    3414.11  E(vib)   ...       0.00 
freq.    3418.89  E(vib)   ...       0.00 
freq.    3426.02  E(vib)   ...       0.00 
freq.    3427.23  E(vib)   ...       0.00 
freq.    3428.64  E(vib)   ...       0.00 
freq.    3428.75  E(vib)   ...       0.00 
freq.    3431.36  E(vib)   ...       0.00 
freq.    3439.48  E(vib)   ...       0.00 
freq.    3441.84  E(vib)   ...       0.00 
freq.    3461.73  E(vib)   ...       0.00 
freq.    3467.48  E(vib)   ...       0.00 
freq.    3470.21  E(vib)   ...       0.00 
freq.    3472.65  E(vib)   ...       0.00 
freq.    3475.24  E(vib)   ...       0.00 
freq.    3480.82  E(vib)   ...       0.00 
freq.    3484.30  E(vib)   ...       0.00 
freq.    3484.82  E(vib)   ...       0.00 
freq.    3486.02  E(vib)   ...       0.00 
freq.    3506.38  E(vib)   ...       0.00 
freq.    3507.43  E(vib)   ...       0.00 
freq.    3519.47  E(vib)   ...       0.00 
freq.    3526.11  E(vib)   ...       0.00 
freq.    3526.33  E(vib)   ...       0.00 
freq.    3542.82  E(vib)   ...       0.00 
freq.    3565.71  E(vib)   ...       0.00 
freq.    3571.71  E(vib)   ...       0.00 
freq.    3582.41  E(vib)   ...       0.00 
freq.    3596.72  E(vib)   ...       0.00 
freq.    3658.87  E(vib)   ...       0.00 
freq.    3661.07  E(vib)   ...       0.00 
freq.    3664.41  E(vib)   ...       0.00 
freq.    3674.62  E(vib)   ...       0.00 
freq.    3686.11  E(vib)   ...       0.00 
freq.    3686.88  E(vib)   ...       0.00 

------------
INNER ENERGY
------------

The inner energy is: U= E(el) + E(ZPE) + E(vib) + E(rot) + E(trans)
    E(el)   - is the total energy from the electronic structure calculation
              = E(kin-el) + E(nuc-el) + E(el-el) + E(nuc-nuc)
    E(ZPE)  - the the zero temperature vibrational energy from the frequency calculation
    E(vib)  - the the finite temperature correction to E(ZPE) due to population
              of excited vibrational states
    E(rot)  - is the rotational thermal energy
    E(trans)- is the translational thermal energy

Summary of contributions to the inner energy U:
Electronic energy                ...  -1023.44712545 Eh
Zero point energy                ...      1.38572210 Eh     869.55 kcal/mol
Thermal vibrational correction   ...      0.12238706 Eh      76.80 kcal/mol
Thermal rotational correction    ...      0.00141627 Eh       0.89 kcal/mol
Thermal translational correction ...      0.00141627 Eh       0.89 kcal/mol
-----------------------------------------------------------------------
Total thermal energy                  -1021.93618375 Eh


Summary of corrections to the electronic energy:
(perhaps to be used in another calculation)
Total thermal correction                  0.12521960 Eh      78.58 kcal/mol
Non-thermal (ZPE) correction              1.38572210 Eh     869.55 kcal/mol
-----------------------------------------------------------------------
Total correction                          1.51094170 Eh     948.13 kcal/mol


--------
ENTHALPY
--------

The enthalpy is H = U + kB*T
                kB is Boltzmann's constant
Total free energy                 ...  -1021.93618375 Eh 
Thermal Enthalpy correction       ...      0.00094421 Eh       0.59 kcal/mol
-----------------------------------------------------------------------
Total Enthalpy                    ...  -1021.93523954 Eh


Note: Only C1 symmetry has been detected, increase convergence thresholds 
      if your molecule has a higher symmetry. Symmetry factor of 1.0 is   
      used for the rotational entropy correction. 
 

Note: Rotational entropy computed according to Herzberg 
Infrared and Raman Spectra, Chapter V,1, Van Nostrand Reinhold, 1945 
Point Group:  C1, Symmetry Number:   1  
Rotational constants in cm-1:     0.001177     0.000696     0.000601 

Vibrational entropy computed according to the QRRHO of S. Grimme
Chem.Eur.J. 2012 18 9955


-------
ENTROPY
-------

The entropy contributions are T*S = T*(S(el)+S(vib)+S(rot)+S(trans))
     S(el)   - electronic entropy
     S(vib)  - vibrational entropy
     S(rot)  - rotational entropy
     S(trans)- translational entropy
The entropies will be listed as multiplied by the temperature to get
units of energy

Electronic entropy                ...      0.00000000 Eh      0.00 kcal/mol
Vibrational entropy               ...      0.21626211 Eh    135.71 kcal/mol
Rotational entropy                ...      0.01962913 Eh     12.32 kcal/mol
Translational entropy             ...      0.02216986 Eh     13.91 kcal/mol
-----------------------------------------------------------------------
Final entropy term                ...      0.25806110 Eh    161.94 kcal/mol

In case the symmetry of your molecule has not been determined correctly
or in case you have a reason to use a different symmetry number we print 
out the resulting rotational entropy values for sn=1,12 :
 --------------------------------------------------------
|  sn= 1 | S(rot)=       0.01962913 Eh     12.32 kcal/mol|
|  sn= 2 | S(rot)=       0.01897467 Eh     11.91 kcal/mol|
|  sn= 3 | S(rot)=       0.01859184 Eh     11.67 kcal/mol|
|  sn= 4 | S(rot)=       0.01832021 Eh     11.50 kcal/mol|
|  sn= 5 | S(rot)=       0.01810953 Eh     11.36 kcal/mol|
|  sn= 6 | S(rot)=       0.01793738 Eh     11.26 kcal/mol|
|  sn= 7 | S(rot)=       0.01779183 Eh     11.16 kcal/mol|
|  sn= 8 | S(rot)=       0.01766576 Eh     11.09 kcal/mol|
|  sn= 9 | S(rot)=       0.01755455 Eh     11.02 kcal/mol|
|  sn=10 | S(rot)=       0.01745507 Eh     10.95 kcal/mol|
|  sn=11 | S(rot)=       0.01736508 Eh     10.90 kcal/mol|
|  sn=12 | S(rot)=       0.01728292 Eh     10.85 kcal/mol|
 --------------------------------------------------------


-------------------
GIBBS FREE ENERGY
-------------------

The Gibbs free energy is G = H - T*S

Total enthalpy                    ...  -1021.93523954 Eh 
Total entropy correction          ...     -0.25806110 Eh   -161.94 kcal/mol
-----------------------------------------------------------------------
Final Gibbs free energy         ...  -1022.19330064 Eh

For completeness - the Gibbs free energy minus the electronic energy
G-E(el)                           ...      1.25382481 Eh    786.79 kcal/mol



Timings for individual modules:

Sum of individual times         ...     1164.311 sec (=  19.405 min)
Numerical frequency calculation ...     1140.546 sec (=  19.009 min)  98.0 %
XTB module                      ...       12.378 sec (=   0.206 min)   1.1 %
ONIOM_Small energy and gradient ...        0.975 sec (=   0.016 min)   0.1 %
ONIOM_Large energy and gradient ...       10.411 sec (=   0.174 min)   0.9 %
                             ****ORCA TERMINATED NORMALLY****
TOTAL RUN TIME: 0 days 0 hours 19 minutes 19 seconds 467 msec
