 Entering Gaussian System
 *********************************************
 Gaussian 98:
 frequency output generated by the xtb code
 *********************************************
                         Standard orientation:
 --------------------------------------------------------------------
  Center     Atomic     Atomic              Coordinates (Angstroms)
  Number     Number      Type              X           Y           Z
 --------------------------------------------------------------------
    1          1             0        9.611030   -3.860140    2.083334
    2          8             0        9.320919   -3.620744    1.171006
    3          1             0       10.115877   -3.474621    0.638000
    4          1             0        6.621803   -3.879846    0.271291
    5          8             0        7.123960   -4.682882    0.033470
    6          1             0        8.005875   -4.474915    0.430028
    7          1             0        7.477767   -4.428914   -1.655339
    8          8             0        7.626897   -4.460264   -2.633161
    9          1             0        6.863732   -3.961920   -2.988786
   10          1             0        3.986440   -8.065422   -1.087126
   11          8             0        4.574110   -7.563778   -0.489460
   12          1             0        5.022119   -6.963519   -1.122487
   13          1             0        6.693797   -5.941418   -2.760733
   14          8             0        5.938478   -6.576695   -2.774366
   15          1             0        6.303496   -7.484247   -2.751452
   16          1             0        6.274690   -5.751087    1.137324
   17          8             0        5.776149   -6.326293    1.762530
   18          1             0        5.362537   -6.980494    1.176465
   19          1             0        5.941243   -9.026233   -1.381051
   20          8             0        6.349924   -9.281441   -2.225674
   21          1             0        5.619919   -9.700159   -2.702039
   22          1             0        7.095890   -6.209201    3.218697
   23          8             0        7.513634   -5.854264    4.024495
   24          1             0        7.023758   -5.017904    4.173090
 --------------------------------------------------------------------
     1 basis functions        1 primitive gaussians
     1 alpha electrons        1 beta electrons
 
 Harmonic frequencies (cm**-1), IR intensities (KM/Mole),
 Raman scattering activities (A**4/amu), Raman depolarization ratios,
 reduced masses (AMU), force constants (mDyne/A) and normal coordinates:
                      1                      2                      3
                        a                      a                      a 
 Frequencies --   -18.5038                11.3370                34.3774
 Red. masses --    14.3395                14.0193                14.2593
 Frc consts  --     0.0000                 0.0000                 0.0000
 IR Inten    --     0.2076                 0.1743                 0.0998
 Raman Activ --     0.0000                 0.0000                 0.0000
 Depolar     --     0.0000                 0.0000                 0.0000
 Atom AN      X      Y      Z        X      Y      Z        X      Y      Z
   1   1     0.08   0.11  -0.11     0.00  -0.05  -0.02     0.01   0.14   0.06
   2   8     0.24   0.35  -0.44    -0.00  -0.17  -0.09     0.02   0.53   0.23
   3   1     0.05   0.10  -0.13    -0.00  -0.05  -0.03     0.00   0.15   0.06
   4   1     0.03  -0.00   0.01    -0.01  -0.02  -0.00     0.04   0.03   0.04
   5   8     0.14   0.00   0.01    -0.07  -0.06  -0.05     0.20   0.16   0.18
   6   1     0.05   0.02  -0.03    -0.01  -0.02  -0.02     0.04   0.06   0.05
   7   1    -0.00   0.00  -0.01    -0.02   0.02  -0.01     0.02  -0.03   0.04
   8   8    -0.04   0.01  -0.03    -0.09   0.11  -0.04     0.05  -0.18   0.15
   9   1    -0.01   0.00  -0.00    -0.02   0.03  -0.01     0.02  -0.04   0.04
  10   1     0.00   0.00   0.01    -0.03   0.04  -0.05    -0.07   0.00  -0.04
  11   8     0.01   0.02   0.03    -0.08   0.12  -0.20    -0.24  -0.01  -0.18
  12   1     0.00   0.00   0.00    -0.03   0.04  -0.05    -0.04  -0.02  -0.05
  13   1    -0.01  -0.00  -0.00    -0.01   0.02  -0.04     0.00  -0.03   0.02
  14   8    -0.02  -0.01   0.02    -0.02   0.06  -0.17    -0.00  -0.11   0.02
  15   1    -0.00  -0.00   0.00     0.00   0.02  -0.00    -0.01  -0.03   0.01
  16   1     0.03  -0.00   0.01    -0.01  -0.03  -0.02     0.01  -0.02  -0.05
  17   8     0.07   0.01  -0.00    -0.01  -0.13  -0.08     0.02  -0.12  -0.24
  18   1     0.01   0.01  -0.00    -0.01  -0.02  -0.03    -0.01  -0.01  -0.07
  19   1     0.00  -0.00   0.01     0.02   0.17   0.13    -0.07  -0.00   0.02
  20   8    -0.01   0.00   0.02     0.24   0.27   0.71    -0.20  -0.11   0.15
  21   1    -0.00  -0.00   0.01     0.09  -0.04   0.22    -0.04  -0.05   0.04
  22   1    -0.06  -0.06   0.07     0.01  -0.05  -0.02     0.04  -0.05  -0.07
  23   8    -0.41  -0.40   0.40     0.04  -0.19  -0.09     0.16  -0.17  -0.31
  24   1    -0.10  -0.10   0.11     0.01  -0.05  -0.02     0.04  -0.04  -0.08
                      4                      5                      6
                        a                      a                      a 
 Frequencies --    36.5088                51.4689                53.3260
 Red. masses --    14.2825                14.3983                14.3823
 Frc consts  --     0.0000                 0.0000                 0.0000
 IR Inten    --     0.1415                 0.0853                 0.2485
 Raman Activ --     0.0000                 0.0000                 0.0000
 Depolar     --     0.0000                 0.0000                 0.0000
 Atom AN      X      Y      Z        X      Y      Z        X      Y      Z
   1   1    -0.12   0.05   0.01    -0.03  -0.03   0.01    -0.02  -0.03   0.13
   2   8    -0.48   0.20   0.03    -0.12  -0.09   0.05     0.02  -0.09   0.49
   3   1    -0.12   0.07   0.02    -0.03  -0.04   0.01     0.02  -0.00   0.15
   4   1    -0.06  -0.07  -0.08    -0.05   0.11  -0.05     0.06   0.04  -0.05
   5   8    -0.13  -0.22  -0.24    -0.23   0.39  -0.16     0.24   0.16  -0.21
   6   1    -0.05  -0.02  -0.04    -0.06   0.08  -0.02     0.05   0.03  -0.03
   7   1     0.06  -0.03  -0.04    -0.00   0.03  -0.03    -0.03   0.01  -0.08
   8   8     0.35  -0.09  -0.16     0.03   0.01  -0.13    -0.26  -0.05  -0.32
   9   1     0.10  -0.02  -0.06     0.01  -0.02  -0.05    -0.07  -0.01  -0.07
  10   1    -0.01   0.08   0.00     0.03   0.01   0.04    -0.00  -0.03   0.02
  11   8    -0.03   0.26   0.05     0.13   0.04   0.13     0.01  -0.04   0.03
  12   1     0.01   0.06   0.02     0.05  -0.01   0.02    -0.02  -0.01  -0.01
  13   1     0.04  -0.00  -0.02     0.04  -0.02   0.03    -0.06  -0.01  -0.04
  14   8     0.08   0.07  -0.06     0.18  -0.11   0.16    -0.24  -0.06  -0.09
  15   1    -0.00   0.01  -0.00     0.05  -0.03   0.04    -0.05  -0.01  -0.02
  16   1     0.05  -0.04   0.02    -0.04   0.12  -0.01     0.09   0.02  -0.05
  17   8     0.28  -0.17   0.13    -0.12   0.43  -0.01     0.39   0.07  -0.18
  18   1     0.05  -0.03   0.04    -0.02   0.10  -0.00     0.09   0.02  -0.04
  19   1    -0.05   0.02   0.01     0.01  -0.05   0.02     0.01   0.01   0.01
  20   8    -0.21   0.05   0.03     0.00  -0.16   0.05     0.02   0.00   0.05
  21   1    -0.06   0.02   0.01    -0.01  -0.02   0.01     0.01  -0.02   0.02
  22   1     0.05  -0.03   0.05     0.03  -0.09  -0.04    -0.01   0.02   0.03
  23   8     0.15  -0.10   0.23     0.13  -0.52  -0.09    -0.18  -0.00   0.23
  24   1     0.03  -0.03   0.05     0.04  -0.13   0.00    -0.05  -0.00   0.05
                      7                      8                      9
                        a                      a                      a 
 Frequencies --    60.6617                66.2558                78.1036
 Red. masses --    14.4831                14.5077                14.4028
 Frc consts  --     0.0000                 0.0000                 0.0000
 IR Inten    --     0.2100                 0.2233                 0.1186
 Raman Activ --     0.0000                 0.0000                 0.0000
 Depolar     --     0.0000                 0.0000                 0.0000
 Atom AN      X      Y      Z        X      Y      Z        X      Y      Z
   1   1     0.02  -0.01   0.00     0.01  -0.05  -0.03     0.01  -0.03  -0.03
   2   8     0.04  -0.02   0.02     0.05  -0.17  -0.12     0.03  -0.09  -0.11
   3   1     0.01  -0.02  -0.00     0.01  -0.07  -0.04     0.00  -0.07  -0.05
   4   1    -0.03   0.04   0.05    -0.06   0.06   0.03    -0.08   0.11   0.01
   5   8    -0.13   0.15   0.20    -0.21   0.28  -0.00    -0.30   0.43   0.09
   6   1    -0.02   0.04   0.03    -0.05   0.07  -0.01    -0.07   0.11   0.03
   7   1    -0.07  -0.03   0.04    -0.02   0.09   0.01     0.05  -0.07   0.04
   8   8    -0.28  -0.08   0.17    -0.04   0.28   0.04     0.32  -0.41   0.19
   9   1    -0.07  -0.03   0.05    -0.02   0.04  -0.01     0.12  -0.07   0.02
  10   1     0.04   0.10  -0.05    -0.04   0.02  -0.04     0.00  -0.06   0.01
  11   8     0.22   0.34  -0.22    -0.14   0.01  -0.09    -0.00  -0.18   0.01
  12   1     0.08   0.05  -0.07     0.00  -0.01  -0.01    -0.05  -0.01  -0.00
  13   1     0.02  -0.05  -0.10     0.08   0.00   0.07    -0.06   0.00  -0.01
  14   8     0.11  -0.24  -0.52     0.34  -0.04   0.29    -0.33   0.10  -0.13
  15   1     0.03  -0.06  -0.10     0.09  -0.01   0.07    -0.09   0.02  -0.04
  16   1     0.00   0.02   0.05     0.06  -0.05  -0.05     0.01   0.02  -0.01
  17   8     0.03  -0.01   0.16     0.38  -0.33  -0.19     0.20  -0.08  -0.06
  18   1     0.01   0.01   0.02     0.08  -0.07  -0.05     0.06  -0.03  -0.02
  19   1    -0.02   0.00  -0.02    -0.07  -0.05   0.01     0.03   0.05  -0.01
  20   8    -0.12  -0.20  -0.04    -0.22  -0.18   0.07     0.11   0.20  -0.05
  21   1    -0.04  -0.07   0.02    -0.05  -0.01  -0.01     0.04   0.02   0.01
  22   1     0.03   0.01   0.06    -0.02   0.03  -0.00     0.01   0.01   0.01
  23   8     0.12   0.05   0.23    -0.15   0.15   0.02    -0.03   0.03   0.07
  24   1     0.03   0.01   0.05    -0.05   0.03  -0.01    -0.01   0.01   0.01
                     10                     11                     12
                        a                      a                      a 
 Frequencies --    98.6465               110.7871               147.2258
 Red. masses --    14.6218                14.4232                14.5911
 Frc consts  --     0.0000                 0.0000                 0.0000
 IR Inten    --     0.2884                 0.1169                 0.2681
 Raman Activ --     0.0000                 0.0000                 0.0000
 Depolar     --     0.0000                 0.0000                 0.0000
 Atom AN      X      Y      Z        X      Y      Z        X      Y      Z
   1   1    -0.00   0.01   0.01     0.02   0.01   0.00     0.01   0.00   0.00
   2   8    -0.02   0.03   0.03     0.04   0.00   0.01     0.03   0.01   0.02
   3   1    -0.00   0.01   0.01     0.01   0.01  -0.00     0.01   0.00   0.00
   4   1     0.01   0.00   0.00     0.00   0.02  -0.02     0.01   0.01   0.01
   5   8     0.02  -0.01   0.01    -0.00   0.06  -0.05    -0.01   0.01   0.07
   6   1     0.00  -0.01   0.00    -0.00   0.01  -0.01     0.00   0.00   0.01
   7   1     0.02   0.02   0.00     0.01   0.03  -0.02     0.01   0.03   0.00
   8   8     0.09   0.14   0.01     0.08   0.13  -0.08     0.10   0.23   0.02
   9   1     0.02   0.04   0.00     0.01   0.02  -0.02     0.02   0.04   0.01
  10   1     0.09  -0.07   0.00    -0.08  -0.09  -0.09    -0.06  -0.08   0.09
  11   8     0.54  -0.46  -0.02    -0.35  -0.41  -0.26    -0.39  -0.18   0.43
  12   1     0.08  -0.05   0.01    -0.09  -0.07  -0.04    -0.12  -0.02   0.13
  13   1     0.02   0.02  -0.04     0.03   0.01  -0.01     0.05  -0.01  -0.12
  14   8     0.03   0.14  -0.17     0.11   0.02  -0.08     0.19  -0.04  -0.55
  15   1    -0.01   0.03  -0.05     0.03   0.01  -0.00     0.04  -0.01  -0.05
  16   1    -0.01   0.01  -0.00    -0.04   0.02  -0.01     0.03   0.02   0.02
  17   8    -0.04   0.05  -0.00    -0.22   0.12  -0.07     0.18   0.09   0.17
  18   1     0.04  -0.03   0.01    -0.05   0.03  -0.02     0.04  -0.00   0.08
  19   1    -0.11   0.11   0.04    -0.04   0.01  -0.01     0.01  -0.06   0.01
  20   8    -0.51   0.08   0.20    -0.04  -0.01   0.02     0.03  -0.05   0.01
  21   1    -0.14  -0.02   0.11     0.01  -0.02  -0.01     0.00   0.03  -0.03
  22   1    -0.03   0.01  -0.02     0.13   0.03   0.11    -0.05  -0.01  -0.04
  23   8    -0.10   0.02  -0.07     0.38   0.07   0.52    -0.12  -0.06  -0.20
  24   1    -0.02   0.01  -0.02     0.09   0.01   0.13    -0.02  -0.01  -0.04
                     13                     14                     15
                        a                      a                      a 
 Frequencies --   190.5101               195.2242               212.1827
 Red. masses --    14.1267                13.1687                13.9621
 Frc consts  --     0.0000                 0.0000                 0.0000
 IR Inten    --     0.0765                 0.0950                 0.2401
 Raman Activ --     0.0000                 0.0000                 0.0000
 Depolar     --     0.0000                 0.0000                 0.0000
 Atom AN      X      Y      Z        X      Y      Z        X      Y      Z
   1   1     0.09   0.04   0.04    -0.01  -0.01  -0.00    -0.04  -0.02  -0.02
   2   8     0.33   0.12   0.17    -0.04  -0.01  -0.02    -0.18  -0.08  -0.08
   3   1     0.08   0.04   0.05    -0.01  -0.00  -0.00    -0.05  -0.02  -0.03
   4   1    -0.05   0.04   0.01     0.01  -0.00   0.00     0.03  -0.01  -0.01
   5   8    -0.19   0.17   0.00     0.01  -0.03   0.02     0.14  -0.01  -0.07
   6   1    -0.05   0.03  -0.00     0.01  -0.00  -0.00     0.03  -0.01  -0.01
   7   1     0.01   0.05  -0.11    -0.05  -0.05   0.00    -0.01  -0.03   0.08
   8   8     0.07  -0.01  -0.43    -0.22  -0.27  -0.00    -0.03   0.03   0.30
   9   1     0.02  -0.02  -0.13    -0.07  -0.10  -0.00    -0.01   0.02   0.09
  10   1     0.03   0.02   0.07    -0.05   0.01   0.01     0.02  -0.00   0.13
  11   8     0.09   0.10   0.26    -0.06  -0.10   0.00     0.10   0.12   0.42
  12   1     0.02   0.02   0.07     0.02  -0.06  -0.01     0.01   0.01   0.07
  13   1     0.02  -0.02  -0.03     0.08  -0.07   0.01     0.00   0.00  -0.02
  14   8     0.05  -0.05  -0.06     0.35  -0.32   0.06     0.04  -0.03  -0.14
  15   1     0.00  -0.02   0.00     0.10  -0.08   0.05     0.02  -0.00  -0.00
  16   1    -0.11  -0.08   0.02     0.02   0.01   0.00    -0.01  -0.04  -0.15
  17   8    -0.37  -0.47   0.02     0.07   0.06   0.03    -0.16  -0.07  -0.64
  18   1    -0.09  -0.10  -0.02     0.01   0.01   0.01    -0.08   0.01  -0.17
  19   1     0.03  -0.02   0.03    -0.03   0.06   0.02     0.05  -0.06   0.05
  20   8    -0.02   0.09  -0.01    -0.10   0.65  -0.07    -0.01   0.01   0.02
  21   1    -0.03   0.07  -0.01    -0.06   0.33  -0.12    -0.05   0.09  -0.00
  22   1     0.02  -0.02   0.02    -0.01   0.00  -0.00     0.07   0.02   0.02
  23   8     0.04   0.03   0.04    -0.01  -0.01  -0.02     0.10   0.03   0.19
  24   1     0.01   0.01  -0.01     0.00  -0.00  -0.00     0.01  -0.00   0.04
                     16                     17                     18
                        a                      a                      a 
 Frequencies --   288.3791               294.2547               298.8061
 Red. masses --    11.1888                12.6804                 7.4045
 Frc consts  --     0.0000                 0.0000                 0.0000
 IR Inten    --     0.1206                 0.1092                 0.2867
 Raman Activ --     0.0000                 0.0000                 0.0000
 Depolar     --     0.0000                 0.0000                 0.0000
 Atom AN      X      Y      Z        X      Y      Z        X      Y      Z
   1   1     0.01   0.01   0.01    -0.11  -0.06  -0.05    -0.04  -0.03  -0.01
   2   8     0.06   0.02   0.03    -0.39  -0.14  -0.19    -0.12  -0.04  -0.06
   3   1     0.02   0.02   0.02    -0.10  -0.14  -0.08    -0.02  -0.03  -0.01
   4   1    -0.01   0.00  -0.06     0.14   0.08   0.14     0.06   0.05  -0.01
   5   8    -0.01   0.01  -0.18     0.40   0.24   0.46     0.19   0.15  -0.03
   6   1    -0.01   0.01  -0.04     0.12   0.03   0.09     0.05   0.03  -0.01
   7   1    -0.06  -0.10   0.02     0.03   0.06  -0.08    -0.01  -0.05  -0.00
   8   8    -0.29  -0.39   0.06     0.03  -0.02  -0.33    -0.14  -0.20  -0.04
   9   1    -0.07  -0.08   0.03    -0.01  -0.03  -0.09    -0.01  -0.01   0.01
  10   1    -0.01   0.01   0.01    -0.01   0.02   0.01     0.07  -0.04  -0.06
  11   8    -0.07  -0.04   0.14    -0.01   0.00   0.05     0.00  -0.03  -0.10
  12   1    -0.02   0.03   0.07    -0.01   0.02   0.02     0.01   0.01   0.00
  13   1     0.12   0.09  -0.03     0.03  -0.02  -0.00     0.01   0.11  -0.03
  14   8     0.36   0.49   0.01     0.05  -0.00   0.03     0.07   0.39  -0.08
  15   1     0.04   0.11  -0.09    -0.01  -0.01  -0.05     0.04   0.11   0.12
  16   1    -0.02  -0.02  -0.01    -0.01   0.00   0.04    -0.02  -0.00   0.05
  17   8    -0.04  -0.04   0.01    -0.08  -0.10   0.04    -0.05  -0.11   0.15
  18   1     0.00  -0.04   0.02    -0.00  -0.01  -0.01    -0.01  -0.01   0.02
  19   1    -0.08   0.24  -0.12    -0.03   0.14  -0.07     0.12  -0.37   0.18
  20   8    -0.00  -0.04  -0.06    -0.00   0.04  -0.06     0.03  -0.22   0.16
  21   1     0.10  -0.36   0.13     0.05  -0.19   0.08    -0.16   0.50  -0.19
  22   1     0.01  -0.00  -0.00    -0.01  -0.01   0.01    -0.02  -0.01   0.01
  23   8    -0.00   0.01  -0.00     0.00   0.00   0.01    -0.00  -0.01  -0.02
  24   1    -0.01  -0.00  -0.00    -0.00  -0.00  -0.00     0.00  -0.00  -0.00
                     19                     20                     21
                        a                      a                      a 
 Frequencies --   314.1259               343.1203               372.2626
 Red. masses --    13.5398                 1.8942                 2.1095
 Frc consts  --     0.0000                 0.0000                 0.0000
 IR Inten    --     0.3993                 0.2575                 0.4590
 Raman Activ --     0.0000                 0.0000                 0.0000
 Depolar     --     0.0000                 0.0000                 0.0000
 Atom AN      X      Y      Z        X      Y      Z        X      Y      Z
   1   1     0.03   0.03   0.01     0.01   0.01   0.00    -0.08   0.07   0.05
   2   8     0.07   0.04   0.03    -0.01  -0.00   0.01     0.04   0.24   0.06
   3   1     0.01   0.00  -0.00    -0.01  -0.01  -0.01     0.08  -0.87  -0.14
   4   1    -0.11  -0.11   0.17    -0.00   0.01  -0.03    -0.18  -0.10  -0.14
   5   8    -0.33  -0.31   0.52     0.03   0.02  -0.06     0.04  -0.06  -0.04
   6   1    -0.08  -0.05   0.11     0.00   0.02  -0.01    -0.07   0.20   0.08
   7   1    -0.02   0.03  -0.08    -0.00   0.00   0.01     0.02  -0.02   0.01
   8   8    -0.04  -0.13  -0.29     0.01   0.03   0.03    -0.03   0.02   0.00
   9   1    -0.01  -0.05  -0.11    -0.01  -0.01   0.01    -0.00   0.03   0.03
  10   1     0.05  -0.02  -0.02     0.10  -0.20   0.04    -0.03   0.01   0.02
  11   8     0.01   0.01   0.01    -0.07   0.03  -0.05     0.01  -0.01   0.00
  12   1    -0.01   0.03   0.03    -0.13   0.01  -0.08     0.01  -0.02  -0.02
  13   1     0.04   0.02  -0.02     0.03  -0.03   0.01    -0.00   0.00  -0.01
  14   8     0.08   0.21   0.00     0.05  -0.04   0.06    -0.00   0.01  -0.00
  15   1    -0.01   0.04   0.02    -0.02  -0.02  -0.14     0.00   0.00  -0.01
  16   1     0.08   0.02  -0.09     0.00   0.00   0.02     0.06  -0.04   0.01
  17   8     0.17   0.26  -0.32     0.01  -0.03   0.06    -0.01  -0.00   0.00
  18   1     0.02   0.07  -0.06    -0.05   0.04  -0.00    -0.04   0.02  -0.00
  19   1     0.09  -0.07   0.06     0.59   0.21   0.17    -0.01   0.00  -0.01
  20   8     0.01  -0.07   0.01    -0.02  -0.03  -0.17     0.01   0.00  -0.00
  21   1    -0.07   0.08   0.02    -0.41   0.07   0.50     0.01   0.00  -0.01
  22   1     0.02   0.04  -0.02    -0.00  -0.01   0.00    -0.06  -0.00   0.03
  23   8     0.02  -0.01   0.03    -0.01  -0.00  -0.01     0.01  -0.02   0.00
  24   1     0.01  -0.01   0.03    -0.00   0.00  -0.02     0.06   0.03   0.00
                     22                     23                     24
                        a                      a                      a 
 Frequencies --   442.6645               448.1185               462.4072
 Red. masses --     1.3377                 1.3211                 1.6059
 Frc consts  --     0.0000                 0.0000                 0.0000
 IR Inten    --     0.2649                 0.3420                 0.1608
 Raman Activ --     0.0000                 0.0000                 0.0000
 Depolar     --     0.0000                 0.0000                 0.0000
 Atom AN      X      Y      Z        X      Y      Z        X      Y      Z
   1   1     0.08  -0.02  -0.02    -0.03   0.11   0.04    -0.04   0.17   0.05
   2   8    -0.02   0.03   0.03     0.01   0.04  -0.00     0.01   0.06   0.00
   3   1    -0.05   0.03  -0.06     0.03  -0.15  -0.01     0.04  -0.19  -0.00
   4   1     0.11   0.07   0.02     0.18   0.13  -0.04     0.35   0.24  -0.01
   5   8    -0.04   0.01  -0.02    -0.03  -0.01  -0.03    -0.14  -0.05   0.01
   6   1     0.02  -0.13  -0.00     0.03  -0.18   0.01     0.05  -0.40   0.00
   7   1    -0.02   0.01  -0.00    -0.02   0.02   0.01    -0.05   0.01  -0.01
   8   8    -0.01  -0.00   0.01    -0.00   0.02   0.05    -0.00  -0.01  -0.00
   9   1     0.01   0.00  -0.01    -0.05  -0.09  -0.02     0.06   0.06  -0.05
  10   1    -0.00   0.03  -0.03     0.41  -0.06  -0.38    -0.20  -0.10   0.32
  11   8     0.00  -0.01  -0.00    -0.06  -0.00  -0.01     0.05   0.06  -0.01
  12   1    -0.02   0.05   0.04    -0.06   0.38   0.35    -0.16  -0.13  -0.28
  13   1     0.00  -0.01  -0.01     0.06  -0.10  -0.03    -0.04   0.06   0.05
  14   8     0.00  -0.01   0.01    -0.01  -0.06   0.02     0.02   0.02   0.00
  15   1    -0.01  -0.01   0.01    -0.11  -0.05   0.12     0.08   0.04  -0.02
  16   1    -0.02   0.00  -0.03    -0.19   0.07  -0.10    -0.25   0.22   0.00
  17   8    -0.01  -0.00  -0.07    -0.01   0.02  -0.03     0.02  -0.03  -0.01
  18   1     0.11  -0.10   0.01     0.17  -0.21   0.12     0.23  -0.12  -0.03
  19   1     0.01   0.04  -0.01     0.02  -0.08   0.03    -0.04   0.12  -0.06
  20   8     0.03  -0.02  -0.00    -0.03   0.06  -0.02     0.03  -0.07   0.02
  21   1    -0.01   0.02   0.01     0.02  -0.07   0.02    -0.02   0.10  -0.05
  22   1    -0.58   0.13   0.21     0.09   0.11  -0.10     0.08   0.08  -0.08
  23   8    -0.02  -0.11  -0.01     0.02  -0.01  -0.01     0.01   0.00   0.00
  24   1     0.62   0.32   0.07    -0.09  -0.08   0.13    -0.09  -0.07   0.09
                     25                     26                     27
                        a                      a                      a 
 Frequencies --   463.7601               471.3862               485.1138
 Red. masses --     1.6323                 1.5670                 1.5711
 Frc consts  --     0.0000                 0.0000                 0.0000
 IR Inten    --     0.2711                 0.2963                 0.4430
 Raman Activ --     0.0000                 0.0000                 0.0000
 Depolar     --     0.0000                 0.0000                 0.0000
 Atom AN      X      Y      Z        X      Y      Z        X      Y      Z
   1   1    -0.16   0.03   0.05    -0.43  -0.02   0.10    -0.17  -0.16  -0.00
   2   8     0.01   0.04  -0.04     0.03   0.05  -0.13     0.02   0.00  -0.06
   3   1     0.11  -0.08   0.13     0.29  -0.08   0.37     0.11   0.08   0.17
   4   1     0.13   0.06   0.13     0.06  -0.04   0.32    -0.20  -0.15   0.05
   5   8    -0.05   0.02  -0.02    -0.05   0.02  -0.05     0.07   0.02   0.02
   6   1     0.06  -0.14  -0.11     0.12  -0.05  -0.30    -0.01   0.24  -0.03
   7   1    -0.07   0.04  -0.00    -0.18   0.14  -0.01     0.05  -0.04   0.00
   8   8     0.01  -0.01   0.04     0.00  -0.02   0.08    -0.00  -0.03  -0.04
   9   1     0.06   0.04  -0.06     0.09  -0.03  -0.19     0.05   0.12   0.05
  10   1    -0.30   0.55  -0.20     0.15  -0.21   0.03    -0.02  -0.03   0.05
  11   8    -0.05  -0.14   0.03     0.02   0.02   0.00     0.00   0.03   0.00
  12   1     0.43  -0.15   0.22    -0.14   0.07  -0.04    -0.06   0.01  -0.04
  13   1    -0.00  -0.00  -0.04     0.00  -0.01   0.09    -0.07   0.07  -0.02
  14   8    -0.04   0.01   0.01    -0.00  -0.01  -0.03    -0.00  -0.05   0.02
  15   1    -0.03  -0.01  -0.18    -0.00  -0.00   0.06     0.10   0.03  -0.04
  16   1    -0.04  -0.03  -0.07     0.14  -0.08   0.04    -0.01  -0.10  -0.09
  17   8     0.03   0.01  -0.01     0.02  -0.01   0.01    -0.07   0.02   0.00
  18   1    -0.06  -0.02   0.08    -0.17   0.15  -0.05     0.14  -0.21   0.13
  19   1     0.14   0.05   0.04    -0.05  -0.02  -0.01    -0.02   0.17  -0.06
  20   8     0.06  -0.05  -0.02    -0.02   0.03   0.00     0.02  -0.07   0.02
  21   1    -0.12   0.08   0.11     0.05  -0.04  -0.04    -0.05   0.10  -0.02
  22   1     0.03   0.03  -0.02    -0.09  -0.10   0.10    -0.09   0.42  -0.17
  23   8     0.00   0.01  -0.00     0.03  -0.00   0.00     0.04  -0.03  -0.10
  24   1    -0.03  -0.02   0.04     0.04   0.03  -0.06    -0.05  -0.14   0.55
                     28                     29                     30
                        a                      a                      a 
 Frequencies --   503.6188               514.4482               538.9912
 Red. masses --     2.0484                 1.8193                 1.8296
 Frc consts  --     0.0000                 0.0000                 0.0000
 IR Inten    --     0.5065                 0.6536                 0.1620
 Raman Activ --     0.0000                 0.0000                 0.0000
 Depolar     --     0.0000                 0.0000                 0.0000
 Atom AN      X      Y      Z        X      Y      Z        X      Y      Z
   1   1    -0.27  -0.06   0.05    -0.25   0.00   0.06    -0.02  -0.11  -0.02
   2   8     0.03   0.00  -0.11     0.03  -0.03  -0.11     0.00   0.02  -0.00
   3   1     0.19   0.07   0.26     0.17   0.06   0.23     0.01   0.01   0.02
   4   1    -0.00   0.09  -0.30    -0.03   0.05  -0.28    -0.16  -0.15   0.11
   5   8    -0.03  -0.04   0.13     0.01  -0.04   0.06     0.07  -0.02  -0.04
   6   1    -0.05   0.05   0.11    -0.05   0.07   0.09     0.00   0.15  -0.05
   7   1     0.15  -0.30   0.01     0.19   0.07   0.02     0.01   0.25   0.01
   8   8    -0.04   0.01  -0.11     0.03   0.07  -0.01     0.02   0.01   0.06
   9   1     0.05   0.31   0.27    -0.29  -0.35   0.09    -0.11  -0.27  -0.13
  10   1     0.07   0.02  -0.09    -0.12   0.03   0.09    -0.11   0.10   0.03
  11   8    -0.02  -0.02   0.03    -0.00   0.02  -0.01     0.02  -0.00   0.00
  12   1    -0.02   0.10   0.10     0.08  -0.16  -0.11    -0.13   0.12   0.03
  13   1    -0.09   0.09  -0.21     0.15  -0.16   0.10     0.04  -0.05   0.19
  14   8    -0.01  -0.07   0.07     0.01   0.10  -0.04    -0.03   0.01  -0.03
  15   1     0.13   0.04  -0.01    -0.22  -0.07   0.01    -0.05  -0.01  -0.06
  16   1    -0.04   0.15   0.09    -0.07   0.14   0.08    -0.09   0.03  -0.05
  17   8    -0.01  -0.00  -0.05    -0.02  -0.03  -0.01    -0.08   0.08  -0.03
  18   1     0.16  -0.01  -0.11     0.16  -0.03  -0.09     0.39  -0.33   0.09
  19   1    -0.03   0.17  -0.07     0.09  -0.33   0.15    -0.03   0.25  -0.10
  20   8     0.01  -0.06   0.01    -0.03   0.12  -0.02     0.06  -0.13   0.02
  21   1    -0.04   0.09  -0.02     0.06  -0.18   0.07    -0.09   0.22  -0.06
  22   1    -0.02  -0.22   0.12    -0.08   0.06   0.01     0.10  -0.22   0.07
  23   8     0.01   0.01   0.05     0.02  -0.01  -0.02    -0.01   0.01   0.07
  24   1     0.02   0.06  -0.23     0.03  -0.01   0.10     0.01   0.07  -0.31
                     31                     32                     33
                        a                      a                      a 
 Frequencies --   559.9341               576.6505               611.5136
 Red. masses --     1.6905                 1.7908                 2.0774
 Frc consts  --     0.0000                 0.0000                 0.0000
 IR Inten    --     0.5103                 0.4249                 0.5649
 Raman Activ --     0.0000                 0.0000                 0.0000
 Depolar     --     0.0000                 0.0000                 0.0000
 Atom AN      X      Y      Z        X      Y      Z        X      Y      Z
   1   1    -0.04   0.12   0.04    -0.09   0.16   0.06     0.03   0.74   0.19
   2   8     0.00  -0.02  -0.03    -0.01  -0.05  -0.04    -0.02  -0.23  -0.02
   3   1     0.03  -0.00   0.04     0.05  -0.00   0.07    -0.04   0.01  -0.03
   4   1     0.09   0.09  -0.05    -0.03  -0.05   0.14    -0.11  -0.15   0.28
   5   8    -0.06   0.03  -0.02     0.01   0.06   0.01     0.01   0.06  -0.06
   6   1    -0.04  -0.16   0.13    -0.00  -0.01   0.02     0.03   0.05  -0.11
   7   1     0.37   0.11   0.03     0.13  -0.11   0.01     0.13  -0.07   0.01
   8   8     0.02   0.03  -0.05    -0.01  -0.01  -0.06     0.02  -0.00  -0.04
   9   1    -0.30  -0.28   0.23    -0.02   0.10   0.17    -0.07   0.00   0.15
  10   1     0.03  -0.01  -0.02    -0.01  -0.09   0.09    -0.03   0.05  -0.01
  11   8     0.03  -0.03  -0.00     0.02   0.06  -0.04    -0.01  -0.01   0.00
  12   1    -0.07   0.10   0.04     0.01  -0.12  -0.13    -0.00   0.02   0.02
  13   1     0.01  -0.02   0.11    -0.03   0.05  -0.08    -0.03   0.04  -0.07
  14   8    -0.02   0.01  -0.01     0.01   0.00   0.00    -0.00  -0.01   0.01
  15   1    -0.00   0.00  -0.12     0.05   0.02   0.07     0.05   0.02   0.04
  16   1     0.08  -0.17  -0.10    -0.20  -0.23  -0.40     0.16   0.02   0.16
  17   8     0.08  -0.02   0.02     0.05   0.09   0.01    -0.08   0.01  -0.00
  18   1    -0.40   0.18   0.09    -0.13  -0.26   0.43     0.23  -0.03  -0.15
  19   1    -0.12   0.32  -0.15     0.04  -0.19   0.08     0.02  -0.01   0.01
  20   8     0.06  -0.14   0.05    -0.03   0.08  -0.03    -0.01   0.01  -0.01
  21   1    -0.05   0.23  -0.12     0.04  -0.12   0.05    -0.01  -0.01   0.02
  22   1    -0.02   0.05  -0.02     0.17   0.02  -0.09    -0.09  -0.05   0.06
  23   8    -0.00  -0.01  -0.02    -0.07  -0.06   0.09     0.04   0.02  -0.04
  24   1     0.00  -0.01   0.06     0.18   0.15  -0.27    -0.05  -0.04   0.07
                     34                     35                     36
                        a                      a                      a 
 Frequencies --   618.0624               633.1428               653.4987
 Red. masses --     2.0203                 1.8825                 1.9341
 Frc consts  --     0.0000                 0.0000                 0.0000
 IR Inten    --     0.7747                 0.5793                 0.8277
 Raman Activ --     0.0000                 0.0000                 0.0000
 Depolar     --     0.0000                 0.0000                 0.0000
 Atom AN      X      Y      Z        X      Y      Z        X      Y      Z
   1   1    -0.06   0.38   0.11     0.03  -0.17  -0.05     0.01   0.09   0.02
   2   8     0.01  -0.15  -0.08     0.01   0.06   0.02    -0.01  -0.03  -0.00
   3   1     0.03   0.11   0.07    -0.01  -0.05  -0.04    -0.01   0.00  -0.01
   4   1    -0.09   0.05  -0.41     0.00  -0.06   0.21    -0.02  -0.02   0.03
   5   8     0.10  -0.03   0.07    -0.02   0.00  -0.07     0.01  -0.00   0.03
   6   1    -0.12   0.09   0.28    -0.00  -0.10   0.02     0.04   0.08  -0.12
   7   1    -0.20   0.29  -0.02     0.29   0.21   0.03    -0.19  -0.23  -0.02
   8   8    -0.05  -0.05   0.09    -0.02  -0.08  -0.04     0.04   0.08  -0.00
   9   1     0.20   0.04  -0.35    -0.04   0.02   0.12    -0.01  -0.02  -0.01
  10   1     0.11  -0.06  -0.06     0.27  -0.19  -0.11     0.19  -0.20  -0.01
  11   8    -0.04   0.02   0.03    -0.13   0.08   0.05    -0.07   0.06   0.02
  12   1     0.12  -0.07   0.02     0.29  -0.23  -0.01     0.13  -0.13  -0.04
  13   1    -0.10   0.11   0.25    -0.19   0.22   0.21     0.17  -0.19  -0.14
  14   8    -0.02  -0.02  -0.06    -0.01  -0.05  -0.02     0.00   0.05   0.15
  15   1     0.14   0.06  -0.08     0.27   0.10  -0.32    -0.24  -0.10  -0.65
  16   1    -0.04  -0.02  -0.06    -0.10   0.11   0.01    -0.05   0.06   0.03
  17   8     0.03  -0.01  -0.00     0.00   0.02  -0.02     0.00  -0.02   0.01
  18   1    -0.08  -0.00   0.06     0.12  -0.05  -0.03     0.03   0.01  -0.03
  19   1    -0.03   0.06  -0.03    -0.01  -0.11   0.04    -0.11   0.02  -0.04
  20   8    -0.01  -0.01   0.01    -0.05   0.06   0.03     0.02  -0.03   0.10
  21   1    -0.00   0.03  -0.02     0.04  -0.07   0.01     0.04   0.15  -0.16
  22   1     0.02   0.05  -0.03    -0.12  -0.14   0.13     0.11   0.11  -0.11
  23   8    -0.01  -0.03   0.01     0.05   0.04  -0.02    -0.05  -0.04   0.03
  24   1     0.08   0.04  -0.03    -0.10  -0.06   0.03     0.11   0.08  -0.06
                     37                     38                     39
                        a                      a                      a 
 Frequencies --   675.0460               732.3786               782.4821
 Red. masses --     1.9306                 1.8669                 1.8479
 Frc consts  --     0.0000                 0.0000                 0.0000
 IR Inten    --     0.9202                 0.5068                 0.7769
 Raman Activ --     0.0000                 0.0000                 0.0000
 Depolar     --     0.0000                 0.0000                 0.0000
 Atom AN      X      Y      Z        X      Y      Z        X      Y      Z
   1   1    -0.01  -0.04  -0.01    -0.00  -0.00   0.00    -0.01  -0.07  -0.02
   2   8    -0.01   0.02   0.01     0.01  -0.01   0.01    -0.00   0.03   0.00
   3   1     0.01  -0.02   0.01    -0.00  -0.01  -0.01     0.01  -0.03   0.01
   4   1    -0.03  -0.05   0.08     0.01   0.02  -0.05     0.17   0.17  -0.16
   5   8    -0.02  -0.04  -0.00     0.01  -0.02   0.05    -0.08   0.02   0.04
   6   1     0.05   0.06  -0.16     0.02   0.07  -0.07     0.01  -0.12  -0.01
   7   1     0.14   0.11   0.01    -0.22  -0.11  -0.01    -0.02  -0.01  -0.00
   8   8     0.00  -0.03   0.00     0.14   0.11   0.07     0.02   0.02   0.01
   9   1    -0.06  -0.06   0.05    -0.22  -0.47  -0.15    -0.05  -0.10  -0.02
  10   1     0.03   0.03  -0.06     0.09  -0.09  -0.01    -0.02   0.02   0.01
  11   8    -0.02  -0.03   0.02    -0.05   0.05   0.00     0.01   0.01  -0.00
  12   1     0.05   0.01   0.06     0.19  -0.18  -0.04    -0.07   0.05  -0.00
  13   1    -0.12   0.13   0.05    -0.16   0.17  -0.52    -0.11   0.13  -0.03
  14   8    -0.02  -0.03  -0.04    -0.07  -0.01   0.07    -0.00  -0.03   0.05
  15   1     0.17   0.07   0.14     0.26   0.11   0.20     0.17   0.06  -0.22
  16   1    -0.06   0.23   0.20    -0.08   0.03  -0.05     0.60  -0.42   0.09
  17   8     0.00  -0.09   0.04     0.02   0.00  -0.02    -0.18   0.08   0.00
  18   1     0.02   0.17  -0.23    -0.03  -0.02   0.04     0.24  -0.16  -0.00
  19   1     0.01   0.04  -0.01    -0.02   0.13  -0.05     0.02  -0.15   0.06
  20   8    -0.01  -0.00  -0.02    -0.01  -0.03  -0.01    -0.02   0.04   0.00
  21   1    -0.01  -0.03   0.04    -0.02   0.01   0.01     0.02  -0.04   0.02
  22   1     0.36   0.37  -0.36    -0.07  -0.05   0.06     0.14   0.08  -0.10
  23   8    -0.16  -0.11   0.08     0.02   0.01  -0.01    -0.03  -0.03   0.03
  24   1     0.32   0.22  -0.15    -0.04  -0.03   0.02     0.03   0.03  -0.07
                     40                     41                     42
                        a                      a                      a 
 Frequencies --   823.2575               844.0442               900.7006
 Red. masses --     1.9858                 1.7773                 2.1530
 Frc consts  --     0.0000                 0.0000                 0.0000
 IR Inten    --     0.2231                 0.7216                 0.9662
 Raman Activ --     0.0000                 0.0000                 0.0000
 Depolar     --     0.0000                 0.0000                 0.0000
 Atom AN      X      Y      Z        X      Y      Z        X      Y      Z
   1   1     0.04   0.04   0.00    -0.00   0.03   0.01     0.08   0.07   0.01
   2   8    -0.00  -0.01   0.04     0.01  -0.02  -0.00    -0.02  -0.04   0.06
   3   1    -0.03  -0.02  -0.04     0.00   0.01   0.00    -0.06   0.00  -0.07
   4   1     0.08   0.09  -0.12    -0.06  -0.05   0.02     0.11   0.15  -0.30
   5   8    -0.05  -0.05   0.13     0.04  -0.02   0.00    -0.08  -0.11   0.19
   6   1     0.12   0.18  -0.35    -0.01   0.06   0.01     0.20   0.27  -0.59
   7   1    -0.17  -0.49  -0.02    -0.07  -0.05  -0.00     0.26   0.39   0.02
   8   8     0.08   0.10  -0.09     0.04   0.02   0.01    -0.06  -0.09   0.03
   9   1    -0.11  -0.10   0.08    -0.06  -0.14  -0.06     0.07   0.12   0.02
  10   1     0.03   0.02  -0.04    -0.19   0.19   0.03    -0.02  -0.01   0.03
  11   8    -0.01   0.00   0.01     0.12  -0.09  -0.03     0.01   0.00  -0.01
  12   1     0.05  -0.02   0.02    -0.39   0.35   0.06    -0.03   0.01  -0.01
  13   1    -0.08   0.07   0.62    -0.16   0.18  -0.06     0.02  -0.02  -0.20
  14   8    -0.01   0.00  -0.12     0.02  -0.07   0.09     0.01  -0.00   0.04
  15   1     0.11   0.05   0.07     0.26   0.08  -0.44    -0.03  -0.01  -0.05
  16   1    -0.04  -0.01  -0.04    -0.24   0.15  -0.05    -0.05  -0.02  -0.06
  17   8     0.02   0.01  -0.03     0.08  -0.03   0.01     0.02   0.01  -0.03
  18   1    -0.04  -0.03   0.07    -0.15   0.10   0.00    -0.05  -0.03   0.08
  19   1     0.01   0.04  -0.01     0.02  -0.28   0.10    -0.01  -0.03   0.00
  20   8    -0.00  -0.01  -0.01    -0.03   0.06   0.01     0.00   0.01   0.00
  21   1    -0.02  -0.00   0.02     0.05  -0.07  -0.00     0.01   0.00  -0.01
  22   1    -0.04  -0.03   0.03    -0.05  -0.02   0.03    -0.06  -0.04   0.05
  23   8     0.01   0.01  -0.01     0.00   0.01  -0.01     0.02   0.01  -0.01
  24   1    -0.02  -0.02   0.01    -0.01  -0.01   0.03    -0.04  -0.03   0.02
                     43                     44                     45
                        a                      a                      a 
 Frequencies --  1548.4975              1554.0948              1565.0234
 Red. masses --     2.2113                 1.9952                 2.0540
 Frc consts  --     0.0000                 0.0000                 0.0000
 IR Inten    --     0.4106                 0.2141                 0.6383
 Raman Activ --     0.0000                 0.0000                 0.0000
 Depolar     --     0.0000                 0.0000                 0.0000
 Atom AN      X      Y      Z        X      Y      Z        X      Y      Z
   1   1     0.64   0.05  -0.19     0.07   0.01  -0.02     0.19   0.03  -0.05
   2   8    -0.26   0.02  -0.08    -0.03   0.00  -0.01    -0.07  -0.01  -0.03
   3   1     0.35  -0.13   0.50     0.04  -0.01   0.06     0.11  -0.02   0.15
   4   1    -0.14  -0.07  -0.08    -0.02  -0.01  -0.02     0.48   0.23   0.27
   5   8     0.03   0.06   0.04     0.01   0.01   0.01    -0.07  -0.20  -0.12
   6   1     0.05  -0.16  -0.07     0.01  -0.03  -0.01    -0.21   0.58   0.22
   7   1     0.00  -0.01   0.00    -0.21   0.14  -0.03     0.03   0.00   0.00
   8   8     0.00   0.00   0.00     0.06  -0.04  -0.05    -0.01   0.00   0.01
   9   1    -0.00  -0.01  -0.01    -0.06   0.07   0.23     0.01  -0.00  -0.02
  10   1    -0.01  -0.02   0.03     0.04   0.05  -0.08     0.01   0.02  -0.03
  11   8    -0.00   0.00  -0.01     0.01  -0.00   0.04    -0.00  -0.00   0.02
  12   1     0.02   0.01   0.03    -0.05  -0.04  -0.08    -0.02  -0.01  -0.03
  13   1    -0.05   0.06   0.00     0.39  -0.46   0.01     0.01  -0.01  -0.01
  14   8     0.03  -0.01   0.00    -0.22   0.05  -0.00    -0.00   0.00   0.00
  15   1    -0.06  -0.03   0.00     0.52   0.22  -0.01     0.01   0.00  -0.00
  16   1     0.02   0.04   0.05    -0.00  -0.00  -0.00    -0.06  -0.10  -0.14
  17   8     0.00  -0.00  -0.02    -0.00  -0.00   0.00    -0.00   0.01   0.07
  18   1    -0.03  -0.03   0.05     0.00   0.00  -0.00     0.08   0.08  -0.14
  19   1     0.02   0.01   0.01    -0.19  -0.10  -0.06     0.01   0.00   0.00
  20   8    -0.01  -0.00   0.00     0.07   0.02  -0.03    -0.00  -0.00   0.00
  21   1     0.01  -0.00  -0.02    -0.13   0.02   0.17     0.01  -0.00  -0.01
  22   1    -0.00  -0.01   0.00    -0.00  -0.00   0.00    -0.01   0.01   0.00
  23   8    -0.00   0.00  -0.00    -0.00   0.00  -0.00     0.00  -0.00   0.00
  24   1    -0.00  -0.00   0.01    -0.00  -0.00   0.00    -0.00  -0.00  -0.01
                     46                     47                     48
                        a                      a                      a 
 Frequencies --  1573.1808              1585.6951              1596.0861
 Red. masses --     2.0830                 2.1040                 2.0979
 Frc consts  --     0.0000                 0.0000                 0.0000
 IR Inten    --     0.5951                 0.8230                 0.7340
 Raman Activ --     0.0000                 0.0000                 0.0000
 Depolar     --     0.0000                 0.0000                 0.0000
 Atom AN      X      Y      Z        X      Y      Z        X      Y      Z
   1   1    -0.01  -0.00   0.00     0.02  -0.00  -0.01     0.01  -0.00  -0.00
   2   8     0.00  -0.00   0.00    -0.01   0.00   0.00    -0.00   0.00  -0.00
   3   1    -0.00   0.00  -0.00     0.01  -0.01   0.01     0.00  -0.00   0.00
   4   1     0.04   0.02   0.03    -0.09  -0.04  -0.05     0.03   0.01   0.05
   5   8    -0.01  -0.02  -0.02     0.01   0.04   0.03    -0.01  -0.00  -0.01
   6   1    -0.02   0.05   0.02     0.05  -0.11  -0.06    -0.01   0.02   0.00
   7   1     0.11  -0.07   0.02     0.30  -0.20   0.05     0.45  -0.28   0.06
   8   8    -0.04   0.02   0.03    -0.10   0.06   0.07    -0.16   0.09   0.10
   9   1     0.04  -0.02  -0.11     0.11  -0.06  -0.31     0.18  -0.06  -0.44
  10   1    -0.11  -0.20   0.29     0.14   0.19  -0.31    -0.05  -0.06   0.10
  11   8    -0.02   0.02  -0.14     0.01  -0.02   0.16    -0.00   0.01  -0.05
  12   1     0.19   0.14   0.29    -0.21  -0.15  -0.31     0.07   0.04   0.10
  13   1    -0.05   0.06   0.00    -0.00   0.01  -0.01     0.21  -0.25  -0.01
  14   8     0.03  -0.01   0.00     0.01   0.00  -0.00    -0.12   0.03   0.00
  15   1    -0.07  -0.02  -0.01    -0.04  -0.02   0.00     0.28   0.12  -0.01
  16   1     0.03   0.05   0.07    -0.09  -0.15  -0.23     0.07   0.11   0.16
  17   8     0.00  -0.00  -0.03    -0.01   0.01   0.11     0.00  -0.00  -0.07
  18   1    -0.04  -0.03   0.07     0.11   0.12  -0.21    -0.08  -0.09   0.15
  19   1    -0.48  -0.23  -0.15    -0.24  -0.09  -0.08     0.19   0.07   0.07
  20   8     0.20   0.04  -0.06     0.10   0.01  -0.03    -0.08  -0.01   0.02
  21   1    -0.32   0.08   0.41    -0.16   0.05   0.19     0.12  -0.04  -0.15
  22   1     0.04  -0.05   0.00    -0.09   0.11  -0.00     0.04  -0.05   0.00
  23   8    -0.02   0.01  -0.01     0.04  -0.02   0.03    -0.02   0.01  -0.01
  24   1     0.03   0.01   0.05    -0.08  -0.03  -0.11     0.04   0.01   0.05
                     49                     50                     51
                        a                      a                      a 
 Frequencies --  1600.8353              1614.6390              3101.2388
 Red. masses --     2.1088                 2.0885                 1.9027
 Frc consts  --     0.0000                 0.0000                 0.0000
 IR Inten    --     0.3385                 0.4329                 1.2099
 Raman Activ --     0.0000                 0.0000                 0.0000
 Depolar     --     0.0000                 0.0000                 0.0000
 Atom AN      X      Y      Z        X      Y      Z        X      Y      Z
   1   1    -0.00   0.00   0.00     0.01  -0.00  -0.00    -0.01   0.00  -0.03
   2   8    -0.00  -0.00  -0.00    -0.00   0.00   0.00     0.00  -0.00   0.01
   3   1     0.00   0.00   0.00     0.00  -0.00   0.00    -0.01  -0.00   0.00
   4   1     0.04   0.02   0.02    -0.10  -0.04  -0.07     0.00   0.02   0.01
   5   8    -0.01  -0.02  -0.01     0.02   0.04   0.04     0.11   0.02   0.04
   6   1    -0.02   0.05   0.02     0.05  -0.11  -0.06    -0.43  -0.07  -0.18
   7   1    -0.00   0.01   0.00     0.02  -0.02   0.00     0.08  -0.02  -0.74
   8   8     0.00  -0.00  -0.00    -0.01   0.01   0.00    -0.02  -0.00   0.18
   9   1    -0.00  -0.01  -0.01     0.01  -0.00  -0.02    -0.03   0.02   0.01
  10   1     0.10   0.13  -0.22    -0.07  -0.11   0.17    -0.00  -0.00  -0.01
  11   8     0.01  -0.01   0.12    -0.02   0.00  -0.09     0.01   0.02  -0.01
  12   1    -0.16  -0.12  -0.24     0.13   0.09   0.20    -0.04  -0.06   0.05
  13   1    -0.04   0.06  -0.01     0.04  -0.05   0.01    -0.31  -0.26  -0.00
  14   8     0.03  -0.00   0.00    -0.03   0.00  -0.00     0.07   0.08   0.00
  15   1    -0.08  -0.03   0.00     0.07   0.03   0.00     0.03  -0.03  -0.00
  16   1     0.07   0.10   0.16    -0.17  -0.29  -0.42     0.02   0.02  -0.03
  17   8     0.00   0.00  -0.08    -0.01   0.02   0.20    -0.01  -0.01   0.00
  18   1    -0.08  -0.09   0.17     0.21   0.21  -0.39     0.00   0.01   0.01
  19   1    -0.09  -0.03  -0.03     0.09   0.04   0.03    -0.00   0.00   0.00
  20   8     0.04   0.00  -0.01    -0.04  -0.01   0.01     0.00  -0.00  -0.00
  21   1    -0.05   0.02   0.06     0.06  -0.02  -0.07    -0.00   0.00  -0.00
  22   1     0.35  -0.45   0.03     0.21  -0.27   0.03     0.00  -0.00   0.00
  23   8    -0.17   0.08  -0.12    -0.10   0.05  -0.08     0.00   0.00  -0.00
  24   1     0.32   0.09   0.45     0.19   0.05   0.27    -0.00  -0.00   0.00
                     52                     53                     54
                        a                      a                      a 
 Frequencies --  3152.1924              3193.7102              3248.9998
 Red. masses --     1.8935                 1.8989                 1.9598
 Frc consts  --     0.0000                 0.0000                 0.0000
 IR Inten    --     0.5540                 1.3157                 0.3804
 Raman Activ --     0.0000                 0.0000                 0.0000
 Depolar     --     0.0000                 0.0000                 0.0000
 Atom AN      X      Y      Z        X      Y      Z        X      Y      Z
   1   1     0.03  -0.01   0.06     0.01  -0.01   0.03     0.02  -0.01   0.05
   2   8    -0.01   0.00  -0.01    -0.00   0.00  -0.01    -0.00   0.00  -0.01
   3   1     0.02   0.01  -0.00     0.00   0.00  -0.00     0.00   0.00  -0.00
   4   1     0.02  -0.08  -0.03     0.02  -0.04  -0.02     0.03  -0.05  -0.02
   5   8    -0.18  -0.01  -0.07    -0.05   0.00  -0.02    -0.03   0.01  -0.01
   6   1     0.69   0.12   0.29     0.20   0.04   0.08     0.12   0.02   0.05
   7   1     0.02  -0.00  -0.20     0.06  -0.02  -0.54     0.01  -0.00  -0.10
   8   8    -0.01  -0.00   0.05     0.00  -0.01   0.14    -0.00  -0.00   0.02
   9   1     0.00   0.00   0.01    -0.07   0.04  -0.02    -0.01   0.00  -0.00
  10   1    -0.01  -0.01  -0.01     0.01   0.00   0.01     0.07   0.05   0.09
  11   8     0.02   0.02  -0.01    -0.02  -0.03   0.02    -0.12  -0.14   0.10
  12   1    -0.05  -0.08   0.06     0.07   0.10  -0.09     0.38   0.53  -0.49
  13   1    -0.34  -0.30  -0.01     0.54   0.48   0.01    -0.12  -0.10  -0.01
  14   8     0.08   0.08   0.00    -0.12  -0.13  -0.00     0.01   0.08  -0.00
  15   1     0.02  -0.03  -0.00    -0.04   0.05  -0.00     0.09  -0.21   0.00
  16   1     0.15   0.18  -0.18     0.10   0.12  -0.12    -0.19  -0.23   0.23
  17   8    -0.04  -0.05   0.04    -0.03  -0.03   0.03     0.05   0.07  -0.05
  18   1     0.01   0.02   0.03     0.00   0.01   0.02    -0.02  -0.04  -0.04
  19   1    -0.00   0.00   0.00    -0.00  -0.00   0.01    -0.02   0.01   0.05
  20   8     0.00  -0.00  -0.00    -0.00   0.00  -0.00     0.00  -0.01  -0.01
  21   1    -0.00   0.00  -0.00     0.00  -0.00  -0.00     0.00  -0.00  -0.00
  22   1    -0.01  -0.01  -0.02    -0.01  -0.01  -0.02     0.01   0.01   0.02
  23   8     0.00   0.00   0.01     0.00   0.00   0.01    -0.00  -0.00  -0.00
  24   1     0.00  -0.00   0.00     0.00  -0.00   0.00    -0.00   0.00   0.00
                     55                     56                     57
                        a                      a                      a 
 Frequencies --  3263.1699              3270.5774              3331.1983
 Red. masses --     1.8945                 1.8347                 1.7795
 Frc consts  --     0.0000                 0.0000                 0.0000
 IR Inten    --     0.6819                 0.1692                 0.6615
 Raman Activ --     0.0000                 0.0000                 0.0000
 Depolar     --     0.0000                 0.0000                 0.0000
 Atom AN      X      Y      Z        X      Y      Z        X      Y      Z
   1   1     0.06  -0.05   0.21    -0.25   0.23  -0.88     0.00  -0.00   0.00
   2   8    -0.02   0.01  -0.05     0.06  -0.06   0.21    -0.00   0.00  -0.00
   3   1     0.00   0.00  -0.01     0.01  -0.01   0.03     0.00   0.00   0.00
   4   1     0.06  -0.10  -0.03     0.02  -0.04  -0.01     0.00  -0.01  -0.00
   5   8    -0.06   0.02  -0.01    -0.04   0.01  -0.01    -0.00   0.00  -0.00
   6   1     0.19   0.03   0.08     0.12   0.02   0.06     0.01   0.00   0.01
   7   1     0.02  -0.00  -0.19     0.01  -0.00  -0.06     0.00   0.00  -0.00
   8   8    -0.00  -0.00   0.05    -0.00  -0.00   0.01     0.00  -0.01   0.00
   9   1    -0.02   0.01  -0.00    -0.01   0.00  -0.00    -0.02   0.02  -0.01
  10   1    -0.03  -0.02  -0.04    -0.00  -0.00  -0.01    -0.04  -0.03  -0.04
  11   8     0.05   0.07  -0.05     0.01   0.01  -0.01     0.04   0.05  -0.03
  12   1    -0.18  -0.24   0.23    -0.02  -0.03   0.03    -0.12  -0.15   0.15
  13   1     0.05   0.04   0.00     0.01   0.01   0.00     0.10   0.12   0.00
  14   8     0.00  -0.05   0.00     0.00  -0.01   0.00    -0.11   0.19  -0.00
  15   1    -0.06   0.14  -0.00    -0.01   0.02  -0.00     0.33  -0.86   0.01
  16   1    -0.40  -0.47   0.47    -0.09  -0.11   0.11    -0.02  -0.02   0.02
  17   8     0.11   0.13  -0.10     0.03   0.03  -0.02     0.00   0.00  -0.01
  18   1    -0.02  -0.04  -0.06    -0.01  -0.01  -0.02     0.00   0.00   0.00
  19   1     0.01  -0.01  -0.04     0.00  -0.00  -0.01    -0.03   0.02   0.07
  20   8    -0.00   0.00   0.01    -0.00   0.00   0.00     0.01  -0.00  -0.02
  21   1    -0.00   0.00   0.00    -0.00   0.00   0.00    -0.01  -0.01  -0.01
  22   1     0.03   0.03   0.07     0.01   0.01   0.02     0.00   0.00   0.01
  23   8    -0.01  -0.01  -0.02    -0.00  -0.00  -0.00    -0.00   0.00  -0.00
  24   1    -0.01   0.02   0.00    -0.00   0.00  -0.00     0.00  -0.00  -0.00
                     58                     59                     60
                        a                      a                      a 
 Frequencies --  3359.3088              3392.8526              3396.2433
 Red. masses --     2.0204                 1.7926                 1.6728
 Frc consts  --     0.0000                 0.0000                 0.0000
 IR Inten    --     0.3250                 0.2118                 0.5818
 Raman Activ --     0.0000                 0.0000                 0.0000
 Depolar     --     0.0000                 0.0000                 0.0000
 Atom AN      X      Y      Z        X      Y      Z        X      Y      Z
   1   1    -0.00   0.00   0.00    -0.00  -0.00   0.00     0.00   0.00  -0.00
   2   8     0.00   0.00  -0.00     0.00   0.00  -0.00    -0.00  -0.00   0.00
   3   1    -0.00  -0.00   0.00    -0.00  -0.00   0.00     0.00   0.00  -0.00
   4   1     0.00  -0.00  -0.00     0.00  -0.00  -0.00     0.01  -0.01  -0.00
   5   8     0.00   0.00  -0.00     0.00   0.00   0.00     0.00   0.00   0.00
   6   1    -0.00  -0.00   0.00    -0.01  -0.00  -0.00    -0.01  -0.00  -0.00
   7   1    -0.00   0.00  -0.00     0.02  -0.01   0.09    -0.00   0.00  -0.01
   8   8    -0.00   0.00  -0.00     0.18  -0.12   0.07    -0.01   0.01  -0.00
   9   1     0.01  -0.01   0.00    -0.74   0.49  -0.39     0.05  -0.03   0.02
  10   1     0.00   0.00   0.00    -0.00  -0.00  -0.00     0.02   0.02   0.02
  11   8     0.00   0.00  -0.00     0.00   0.00   0.00    -0.00  -0.00  -0.01
  12   1    -0.01  -0.01   0.01    -0.00  -0.00   0.00    -0.01  -0.02   0.01
  13   1    -0.00  -0.00   0.00    -0.04  -0.04  -0.00     0.00   0.00   0.00
  14   8     0.00  -0.00  -0.00     0.01   0.00   0.00    -0.00   0.00  -0.00
  15   1    -0.00   0.00   0.00    -0.01   0.02  -0.00     0.00  -0.01   0.00
  16   1    -0.02  -0.03   0.03     0.00   0.00  -0.00    -0.03  -0.04   0.04
  17   8     0.01   0.01  -0.00     0.00   0.00   0.00     0.02   0.03   0.01
  18   1    -0.01  -0.02  -0.02    -0.00  -0.01  -0.00    -0.05  -0.07  -0.07
  19   1     0.00  -0.00  -0.01     0.00  -0.00  -0.00     0.02  -0.01  -0.04
  20   8    -0.00   0.00   0.00    -0.00   0.00   0.00    -0.00   0.00   0.01
  21   1    -0.00   0.00  -0.00     0.00   0.00   0.00    -0.01  -0.00  -0.00
  22   1    -0.17  -0.12  -0.31    -0.02  -0.02  -0.05    -0.34  -0.36  -0.73
  23   8    -0.07   0.22   0.12     0.01   0.00   0.01     0.13   0.01   0.16
  24   1     0.43  -0.76  -0.16    -0.01   0.01   0.00    -0.17   0.34   0.09
                     61                     62                     63
                        a                      a                      a 
 Frequencies --  3410.3859              3420.5610              3430.7141
 Red. masses --     1.7742                 1.7689                 1.8952
 Frc consts  --     0.0000                 0.0000                 0.0000
 IR Inten    --     0.1571                 0.1665                 0.4797
 Raman Activ --     0.0000                 0.0000                 0.0000
 Depolar     --     0.0000                 0.0000                 0.0000
 Atom AN      X      Y      Z        X      Y      Z        X      Y      Z
   1   1    -0.00   0.00  -0.00    -0.00   0.00  -0.01     0.00   0.00  -0.00
   2   8     0.00   0.00  -0.00    -0.00  -0.00   0.00     0.00   0.00  -0.00
   3   1    -0.00  -0.00   0.00     0.01   0.00  -0.01    -0.00  -0.00   0.00
   4   1     0.01  -0.01  -0.00    -0.52   0.77   0.21     0.01  -0.01  -0.00
   5   8    -0.00   0.00   0.00     0.10  -0.19  -0.06    -0.00   0.00   0.00
   6   1    -0.00   0.00  -0.00     0.14  -0.00   0.04    -0.00   0.00  -0.00
   7   1     0.00   0.00   0.00     0.01  -0.00  -0.06     0.00   0.00  -0.00
   8   8     0.00  -0.00   0.00     0.00  -0.00   0.02     0.00  -0.00   0.00
   9   1    -0.01   0.00  -0.00    -0.01   0.01  -0.00    -0.00   0.00  -0.00
  10   1     0.58   0.50   0.53     0.01   0.01   0.01    -0.14  -0.11  -0.12
  11   8    -0.12  -0.10  -0.15    -0.00  -0.00  -0.00     0.03   0.01   0.04
  12   1    -0.09  -0.11   0.06    -0.00  -0.00   0.00     0.04   0.05  -0.04
  13   1     0.01   0.01   0.00     0.00   0.00  -0.00    -0.00   0.00  -0.00
  14   8    -0.01   0.01  -0.00    -0.00   0.00   0.00    -0.01   0.02  -0.00
  15   1     0.01  -0.05   0.00     0.00  -0.00   0.00     0.03  -0.08   0.00
  16   1     0.00   0.00  -0.01    -0.04  -0.06   0.05     0.01   0.02  -0.01
  17   8    -0.01  -0.01  -0.01     0.01   0.02  -0.01     0.00   0.01   0.01
  18   1     0.03   0.04   0.04    -0.01  -0.02  -0.02    -0.03  -0.04  -0.03
  19   1     0.08  -0.06  -0.20     0.01  -0.01  -0.02     0.36  -0.25  -0.82
  20   8    -0.01   0.02   0.05    -0.00   0.00   0.00    -0.07   0.07   0.21
  21   1    -0.03  -0.01  -0.01    -0.00  -0.00   0.00    -0.10  -0.04  -0.03
  22   1     0.02   0.02   0.04    -0.00  -0.00  -0.00     0.02   0.02   0.04
  23   8    -0.01  -0.00  -0.01     0.00  -0.00   0.00    -0.01  -0.00  -0.01
  24   1     0.01  -0.01  -0.00    -0.00   0.00   0.00     0.01  -0.01  -0.00
                     64                     65                     66
                        a                      a                      a 
 Frequencies --  3483.6684              3518.3059              3546.2032
 Red. masses --     1.7744                 1.8465                 1.7779
 Frc consts  --     0.0000                 0.0000                 0.0000
 IR Inten    --     0.4083                 0.2529                 0.1762
 Raman Activ --     0.0000                 0.0000                 0.0000
 Depolar     --     0.0000                 0.0000                 0.0000
 Atom AN      X      Y      Z        X      Y      Z        X      Y      Z
   1   1    -0.00  -0.00  -0.00     0.02   0.00  -0.01     0.00  -0.00   0.00
   2   8    -0.00  -0.00   0.00     0.19   0.04  -0.14     0.00   0.00  -0.00
   3   1     0.00   0.00  -0.00    -0.78  -0.15   0.55    -0.01  -0.00   0.00
   4   1    -0.01   0.02   0.01    -0.01   0.01   0.00     0.00  -0.00  -0.00
   5   8     0.00  -0.00  -0.00    -0.00  -0.00  -0.00    -0.00   0.00   0.00
   6   1     0.01  -0.00   0.00     0.02   0.00   0.01     0.00   0.00   0.00
   7   1    -0.00  -0.00   0.00     0.00   0.00  -0.00     0.00   0.00  -0.00
   8   8     0.00  -0.00  -0.00    -0.00  -0.00  -0.00    -0.00   0.00  -0.00
   9   1    -0.00   0.00  -0.00     0.00  -0.00   0.00     0.00  -0.00   0.00
  10   1    -0.04  -0.04  -0.03    -0.00  -0.00  -0.00     0.00   0.00   0.00
  11   8     0.01   0.00   0.01     0.00   0.00   0.00    -0.00  -0.00  -0.00
  12   1     0.02   0.03  -0.02     0.00   0.00   0.00    -0.00  -0.00  -0.00
  13   1     0.00   0.00   0.00     0.00   0.00  -0.00     0.00   0.00  -0.00
  14   8    -0.00  -0.00   0.00    -0.00  -0.00  -0.00    -0.00   0.01  -0.00
  15   1     0.00  -0.00  -0.00    -0.00   0.00   0.00     0.01  -0.03   0.00
  16   1    -0.08  -0.09   0.06    -0.00  -0.00   0.00     0.00   0.00  -0.00
  17   8    -0.09  -0.14  -0.15    -0.00  -0.00  -0.00     0.00   0.00   0.00
  18   1     0.42   0.66   0.54     0.00   0.00   0.00    -0.00  -0.00  -0.00
  19   1     0.02  -0.02  -0.05    -0.00   0.00   0.00     0.02  -0.05  -0.12
  20   8    -0.01   0.00   0.01     0.00   0.00   0.00    -0.18  -0.10  -0.10
  21   1     0.00   0.00   0.00    -0.00  -0.00  -0.00     0.70   0.43   0.50
  22   1    -0.04  -0.04  -0.08    -0.00  -0.00  -0.00     0.00   0.00   0.00
  23   8     0.01   0.01   0.02     0.00  -0.00   0.00    -0.00  -0.00  -0.00
  24   1    -0.01   0.02   0.01    -0.00   0.00   0.00    -0.00   0.00   0.00
