 Entering Gaussian System
 *********************************************
 Gaussian 98:
 frequency output generated by the xtb code
 *********************************************
                         Standard orientation:
 --------------------------------------------------------------------
  Center     Atomic     Atomic              Coordinates (Angstroms)
  Number     Number      Type              X           Y           Z
 --------------------------------------------------------------------
    1          1             0        9.611030   -3.860140    2.083334
    2          8             0        9.320919   -3.620744    1.171006
    3          1             0       10.115877   -3.474621    0.638000
    4          1             0        6.621803   -3.879846    0.271291
    5          8             0        7.123960   -4.682882    0.033470
    6          1             0        8.005875   -4.474915    0.430028
    7          1             0        7.477767   -4.428914   -1.655339
    8          8             0        7.626897   -4.460264   -2.633161
    9          1             0        6.863732   -3.961920   -2.988786
   10          1             0        3.986440   -8.065422   -1.087126
   11          8             0        4.574110   -7.563778   -0.489460
   12          1             0        5.022119   -6.963519   -1.122487
   13          1             0        6.693797   -5.941418   -2.760733
   14          8             0        5.938478   -6.576695   -2.774366
   15          1             0        6.303496   -7.484247   -2.751452
   16          1             0        6.274690   -5.751087    1.137324
   17          8             0        5.776149   -6.326293    1.762530
   18          1             0        5.362537   -6.980494    1.176465
   19          1             0        5.941243   -9.026233   -1.381051
   20          8             0        6.349924   -9.281441   -2.225674
   21          1             0        5.619919   -9.700159   -2.702039
   22          1             0        7.095890   -6.209201    3.218697
   23          8             0        7.513634   -5.854264    4.024495
   24          1             0        7.023758   -5.017904    4.173090
 --------------------------------------------------------------------
     1 basis functions        1 primitive gaussians
     1 alpha electrons        1 beta electrons
 
 Harmonic frequencies (cm**-1), IR intensities (KM/Mole),
 Raman scattering activities (A**4/amu), Raman depolarization ratios,
 reduced masses (AMU), force constants (mDyne/A) and normal coordinates:
                      1                      2                      3
                        a                      a                      a 
 Frequencies --   -18.5038                11.3370                34.3774
 Red. masses --    99.0000                99.0000                99.0000
 Frc consts  --    99.0000                99.0000                99.0000
 IR Inten    --    99.0000                99.0000                99.0000
 Raman Activ --     0.0000                 0.0000                 0.0000
 Depolar     --     0.0000                 0.0000                 0.0000
 Atom AN      X      Y      Z        X      Y      Z        X      Y      Z
   1   1     0.08   0.11  -0.11     0.00  -0.05  -0.02     0.01   0.14   0.06
   2   8     0.24   0.35  -0.44    -0.00  -0.17  -0.09     0.02   0.53   0.23
   3   1     0.05   0.10  -0.13    -0.00  -0.05  -0.03     0.00   0.15   0.06
   4   1     0.03  -0.00   0.01    -0.01  -0.02  -0.00     0.04   0.03   0.04
   5   8     0.14   0.00   0.01    -0.07  -0.06  -0.05     0.20   0.16   0.18
   6   1     0.05   0.02  -0.03    -0.01  -0.02  -0.02     0.04   0.06   0.05
   7   1    -0.00   0.00  -0.01    -0.02   0.02  -0.01     0.02  -0.03   0.04
   8   8    -0.04   0.01  -0.03    -0.09   0.11  -0.04     0.05  -0.18   0.15
   9   1    -0.01   0.00  -0.00    -0.02   0.03  -0.01     0.02  -0.04   0.04
  10   1     0.00   0.00   0.01    -0.03   0.04  -0.05    -0.07   0.00  -0.04
  11   8     0.01   0.02   0.03    -0.08   0.12  -0.20    -0.24  -0.01  -0.18
  12   1     0.00   0.00   0.00    -0.03   0.04  -0.05    -0.04  -0.02  -0.05
  13   1    -0.01  -0.00  -0.00    -0.01   0.02  -0.04     0.00  -0.03   0.02
  14   8    -0.02  -0.01   0.02    -0.02   0.06  -0.17    -0.00  -0.11   0.02
  15   1    -0.00  -0.00   0.00     0.00   0.02  -0.00    -0.01  -0.03   0.01
  16   1     0.03  -0.00   0.01    -0.01  -0.03  -0.02     0.01  -0.02  -0.05
  17   8     0.07   0.01  -0.00    -0.01  -0.13  -0.08     0.02  -0.12  -0.24
  18   1     0.01   0.01  -0.00    -0.01  -0.02  -0.03    -0.01  -0.01  -0.07
  19   1     0.00  -0.00   0.01     0.02   0.17   0.13    -0.07  -0.00   0.02
  20   8    -0.01   0.00   0.02     0.24   0.27   0.71    -0.20  -0.11   0.15
  21   1    -0.00  -0.00   0.01     0.09  -0.04   0.22    -0.04  -0.05   0.04
  22   1    -0.06  -0.06   0.07     0.01  -0.05  -0.02     0.04  -0.05  -0.07
  23   8    -0.41  -0.40   0.40     0.04  -0.19  -0.09     0.16  -0.17  -0.31
  24   1    -0.10  -0.10   0.11     0.01  -0.05  -0.02     0.04  -0.04  -0.08
                      4                      5                      6
                        a                      a                      a 
 Frequencies --    36.5088                53.3260                60.6617
 Red. masses --    99.0000                99.0000                99.0000
 Frc consts  --    99.0000                99.0000                99.0000
 IR Inten    --    99.0000                99.0000                99.0000
 Raman Activ --     0.0000                 0.0000                 0.0000
 Depolar     --     0.0000                 0.0000                 0.0000
 Atom AN      X      Y      Z        X      Y      Z        X      Y      Z
   1   1    -0.12   0.05   0.01    -0.02  -0.03   0.13     0.02  -0.01   0.00
   2   8    -0.48   0.20   0.03     0.02  -0.09   0.49     0.04  -0.02   0.02
   3   1    -0.12   0.07   0.02     0.02  -0.00   0.15     0.01  -0.02  -0.00
   4   1    -0.06  -0.07  -0.08     0.06   0.04  -0.05    -0.03   0.04   0.05
   5   8    -0.13  -0.22  -0.24     0.24   0.16  -0.21    -0.13   0.15   0.20
   6   1    -0.05  -0.02  -0.04     0.05   0.03  -0.03    -0.02   0.04   0.03
   7   1     0.06  -0.03  -0.04    -0.03   0.01  -0.08    -0.07  -0.03   0.04
   8   8     0.35  -0.09  -0.16    -0.26  -0.05  -0.32    -0.28  -0.08   0.17
   9   1     0.10  -0.02  -0.06    -0.07  -0.01  -0.07    -0.07  -0.03   0.05
  10   1    -0.01   0.08   0.00    -0.00  -0.03   0.02     0.04   0.10  -0.05
  11   8    -0.03   0.26   0.05     0.01  -0.04   0.03     0.22   0.34  -0.22
  12   1     0.01   0.06   0.02    -0.02  -0.01  -0.01     0.08   0.05  -0.07
  13   1     0.04  -0.00  -0.02    -0.06  -0.01  -0.04     0.02  -0.05  -0.10
  14   8     0.08   0.07  -0.06    -0.24  -0.06  -0.09     0.11  -0.24  -0.52
  15   1    -0.00   0.01  -0.00    -0.05  -0.01  -0.02     0.03  -0.06  -0.10
  16   1     0.05  -0.04   0.02     0.09   0.02  -0.05     0.00   0.02   0.05
  17   8     0.28  -0.17   0.13     0.39   0.07  -0.18     0.03  -0.01   0.16
  18   1     0.05  -0.03   0.04     0.09   0.02  -0.04     0.01   0.01   0.02
  19   1    -0.05   0.02   0.01     0.01   0.01   0.01    -0.02   0.00  -0.02
  20   8    -0.21   0.05   0.03     0.02   0.00   0.05    -0.12  -0.20  -0.04
  21   1    -0.06   0.02   0.01     0.01  -0.02   0.02    -0.04  -0.07   0.02
  22   1     0.05  -0.03   0.05    -0.01   0.02   0.03     0.03   0.01   0.06
  23   8     0.15  -0.10   0.23    -0.18  -0.00   0.23     0.12   0.05   0.23
  24   1     0.03  -0.03   0.05    -0.05  -0.00   0.05     0.03   0.01   0.05
                      7                      8                      9
                        a                      a                      a 
 Frequencies --    51.4689                66.2558                78.1036
 Red. masses --    99.0000                99.0000                99.0000
 Frc consts  --    99.0000                99.0000                99.0000
 IR Inten    --    99.0000                99.0000                99.0000
 Raman Activ --     0.0000                 0.0000                 0.0000
 Depolar     --     0.0000                 0.0000                 0.0000
 Atom AN      X      Y      Z        X      Y      Z        X      Y      Z
   1   1    -0.03  -0.03   0.01     0.01  -0.05  -0.03     0.01  -0.03  -0.03
   2   8    -0.12  -0.09   0.05     0.05  -0.17  -0.12     0.03  -0.09  -0.11
   3   1    -0.03  -0.04   0.01     0.01  -0.07  -0.04     0.00  -0.07  -0.05
   4   1    -0.05   0.11  -0.05    -0.06   0.06   0.03    -0.08   0.11   0.01
   5   8    -0.23   0.39  -0.16    -0.21   0.28  -0.00    -0.30   0.43   0.09
   6   1    -0.06   0.08  -0.02    -0.05   0.07  -0.01    -0.07   0.11   0.03
   7   1    -0.00   0.03  -0.03    -0.02   0.09   0.01     0.05  -0.07   0.04
   8   8     0.03   0.01  -0.13    -0.04   0.28   0.04     0.32  -0.41   0.19
   9   1     0.01  -0.02  -0.05    -0.02   0.04  -0.01     0.12  -0.07   0.02
  10   1     0.03   0.01   0.04    -0.04   0.02  -0.04     0.00  -0.06   0.01
  11   8     0.13   0.04   0.13    -0.14   0.01  -0.09    -0.00  -0.18   0.01
  12   1     0.05  -0.01   0.02     0.00  -0.01  -0.01    -0.05  -0.01  -0.00
  13   1     0.04  -0.02   0.03     0.08   0.00   0.07    -0.06   0.00  -0.01
  14   8     0.18  -0.11   0.16     0.34  -0.04   0.29    -0.33   0.10  -0.13
  15   1     0.05  -0.03   0.04     0.09  -0.01   0.07    -0.09   0.02  -0.04
  16   1    -0.04   0.12  -0.01     0.06  -0.05  -0.05     0.01   0.02  -0.01
  17   8    -0.12   0.43  -0.01     0.38  -0.33  -0.19     0.20  -0.08  -0.06
  18   1    -0.02   0.10  -0.00     0.08  -0.07  -0.05     0.06  -0.03  -0.02
  19   1     0.01  -0.05   0.02    -0.07  -0.05   0.01     0.03   0.05  -0.01
  20   8     0.00  -0.16   0.05    -0.22  -0.18   0.07     0.11   0.20  -0.05
  21   1    -0.01  -0.02   0.01    -0.05  -0.01  -0.01     0.04   0.02   0.01
  22   1     0.03  -0.09  -0.04    -0.02   0.03  -0.00     0.01   0.01   0.01
  23   8     0.13  -0.52  -0.09    -0.15   0.15   0.02    -0.03   0.03   0.07
  24   1     0.04  -0.13   0.00    -0.05   0.03  -0.01    -0.01   0.01   0.01
                     10                     11                     12
                        a                      a                      a 
 Frequencies --   110.7871               147.2258                98.6465
 Red. masses --    99.0000                99.0000                99.0000
 Frc consts  --    99.0000                99.0000                99.0000
 IR Inten    --    99.0000                99.0000                99.0000
 Raman Activ --     0.0000                 0.0000                 0.0000
 Depolar     --     0.0000                 0.0000                 0.0000
 Atom AN      X      Y      Z        X      Y      Z        X      Y      Z
   1   1     0.02   0.01   0.00     0.01   0.00   0.00    -0.00   0.01   0.01
   2   8     0.04   0.00   0.01     0.03   0.01   0.02    -0.02   0.03   0.03
   3   1     0.01   0.01  -0.00     0.01   0.00   0.00    -0.00   0.01   0.01
   4   1     0.00   0.02  -0.02     0.01   0.01   0.01     0.01   0.00   0.00
   5   8    -0.00   0.06  -0.05    -0.01   0.01   0.07     0.02  -0.01   0.01
   6   1    -0.00   0.01  -0.01     0.00   0.00   0.01     0.00  -0.01   0.00
   7   1     0.01   0.03  -0.02     0.01   0.03   0.00     0.02   0.02   0.00
   8   8     0.08   0.13  -0.08     0.10   0.23   0.02     0.09   0.14   0.01
   9   1     0.01   0.02  -0.02     0.02   0.04   0.01     0.02   0.04   0.00
  10   1    -0.08  -0.09  -0.09    -0.06  -0.08   0.09     0.09  -0.07   0.00
  11   8    -0.35  -0.41  -0.26    -0.39  -0.18   0.43     0.54  -0.46  -0.02
  12   1    -0.09  -0.07  -0.04    -0.12  -0.02   0.13     0.08  -0.05   0.01
  13   1     0.03   0.01  -0.01     0.05  -0.01  -0.12     0.02   0.02  -0.04
  14   8     0.11   0.02  -0.08     0.19  -0.04  -0.55     0.03   0.14  -0.17
  15   1     0.03   0.01  -0.00     0.04  -0.01  -0.05    -0.01   0.03  -0.05
  16   1    -0.04   0.02  -0.01     0.03   0.02   0.02    -0.01   0.01  -0.00
  17   8    -0.22   0.12  -0.07     0.18   0.09   0.17    -0.04   0.05  -0.00
  18   1    -0.05   0.03  -0.02     0.04  -0.00   0.08     0.04  -0.03   0.01
  19   1    -0.04   0.01  -0.01     0.01  -0.06   0.01    -0.11   0.11   0.04
  20   8    -0.04  -0.01   0.02     0.03  -0.05   0.01    -0.51   0.08   0.20
  21   1     0.01  -0.02  -0.01     0.00   0.03  -0.03    -0.14  -0.02   0.11
  22   1     0.13   0.03   0.11    -0.05  -0.01  -0.04    -0.03   0.01  -0.02
  23   8     0.38   0.07   0.52    -0.12  -0.06  -0.20    -0.10   0.02  -0.07
  24   1     0.09   0.01   0.13    -0.02  -0.01  -0.04    -0.02   0.01  -0.02
                     13                     14                     15
                        a                      a                      a 
 Frequencies --   190.5101               212.1827               195.2242
 Red. masses --    99.0000                99.0000                99.0000
 Frc consts  --    99.0000                99.0000                99.0000
 IR Inten    --    99.0000                99.0000                99.0000
 Raman Activ --     0.0000                 0.0000                 0.0000
 Depolar     --     0.0000                 0.0000                 0.0000
 Atom AN      X      Y      Z        X      Y      Z        X      Y      Z
   1   1     0.09   0.04   0.04    -0.04  -0.02  -0.02    -0.01  -0.01  -0.00
   2   8     0.33   0.12   0.17    -0.18  -0.08  -0.08    -0.04  -0.01  -0.02
   3   1     0.08   0.04   0.05    -0.05  -0.02  -0.03    -0.01  -0.00  -0.00
   4   1    -0.05   0.04   0.01     0.03  -0.01  -0.01     0.01  -0.00   0.00
   5   8    -0.19   0.17   0.00     0.14  -0.01  -0.07     0.01  -0.03   0.02
   6   1    -0.05   0.03  -0.00     0.03  -0.01  -0.01     0.01  -0.00  -0.00
   7   1     0.01   0.05  -0.11    -0.01  -0.03   0.08    -0.05  -0.05   0.00
   8   8     0.07  -0.01  -0.43    -0.03   0.03   0.30    -0.22  -0.27  -0.00
   9   1     0.02  -0.02  -0.13    -0.01   0.02   0.09    -0.07  -0.10  -0.00
  10   1     0.03   0.02   0.07     0.02  -0.00   0.13    -0.05   0.01   0.01
  11   8     0.09   0.10   0.26     0.10   0.12   0.42    -0.06  -0.10   0.00
  12   1     0.02   0.02   0.07     0.01   0.01   0.07     0.02  -0.06  -0.01
  13   1     0.02  -0.02  -0.03     0.00   0.00  -0.02     0.08  -0.07   0.01
  14   8     0.05  -0.05  -0.06     0.04  -0.03  -0.14     0.35  -0.32   0.06
  15   1     0.00  -0.02   0.00     0.02  -0.00  -0.00     0.10  -0.08   0.05
  16   1    -0.11  -0.08   0.02    -0.01  -0.04  -0.15     0.02   0.01   0.00
  17   8    -0.37  -0.47   0.02    -0.16  -0.07  -0.64     0.07   0.06   0.03
  18   1    -0.09  -0.10  -0.02    -0.08   0.01  -0.17     0.01   0.01   0.01
  19   1     0.03  -0.02   0.03     0.05  -0.06   0.05    -0.03   0.06   0.02
  20   8    -0.02   0.09  -0.01    -0.01   0.01   0.02    -0.10   0.65  -0.07
  21   1    -0.03   0.07  -0.01    -0.05   0.09  -0.00    -0.06   0.33  -0.12
  22   1     0.02  -0.02   0.02     0.07   0.02   0.02    -0.01   0.00  -0.00
  23   8     0.04   0.03   0.04     0.10   0.03   0.19    -0.01  -0.01  -0.02
  24   1     0.01   0.01  -0.01     0.01  -0.00   0.04     0.00  -0.00  -0.00
                     16                     17                     18
                        a                      a                      a 
 Frequencies --   294.2547               298.8061               288.3791
 Red. masses --    99.0000                99.0000                99.0000
 Frc consts  --    99.0000                99.0000                99.0000
 IR Inten    --    99.0000                99.0000                99.0000
 Raman Activ --     0.0000                 0.0000                 0.0000
 Depolar     --     0.0000                 0.0000                 0.0000
 Atom AN      X      Y      Z        X      Y      Z        X      Y      Z
   1   1    -0.11  -0.06  -0.05    -0.04  -0.03  -0.01     0.01   0.01   0.01
   2   8    -0.39  -0.14  -0.19    -0.12  -0.04  -0.06     0.06   0.02   0.03
   3   1    -0.10  -0.14  -0.08    -0.02  -0.03  -0.01     0.02   0.02   0.02
   4   1     0.14   0.08   0.14     0.06   0.05  -0.01    -0.01   0.00  -0.06
   5   8     0.40   0.24   0.46     0.19   0.15  -0.03    -0.01   0.01  -0.18
   6   1     0.12   0.03   0.09     0.05   0.03  -0.01    -0.01   0.01  -0.04
   7   1     0.03   0.06  -0.08    -0.01  -0.05  -0.00    -0.06  -0.10   0.02
   8   8     0.03  -0.02  -0.33    -0.14  -0.20  -0.04    -0.29  -0.39   0.06
   9   1    -0.01  -0.03  -0.09    -0.01  -0.01   0.01    -0.07  -0.08   0.03
  10   1    -0.01   0.02   0.01     0.07  -0.04  -0.06    -0.01   0.01   0.01
  11   8    -0.01   0.00   0.05     0.00  -0.03  -0.10    -0.07  -0.04   0.14
  12   1    -0.01   0.02   0.02     0.01   0.01   0.00    -0.02   0.03   0.07
  13   1     0.03  -0.02  -0.00     0.01   0.11  -0.03     0.12   0.09  -0.03
  14   8     0.05  -0.00   0.03     0.07   0.39  -0.08     0.36   0.49   0.01
  15   1    -0.01  -0.01  -0.05     0.04   0.11   0.12     0.04   0.11  -0.09
  16   1    -0.01   0.00   0.04    -0.02  -0.00   0.05    -0.02  -0.02  -0.01
  17   8    -0.08  -0.10   0.04    -0.05  -0.11   0.15    -0.04  -0.04   0.01
  18   1    -0.00  -0.01  -0.01    -0.01  -0.01   0.02     0.00  -0.04   0.02
  19   1    -0.03   0.14  -0.07     0.12  -0.37   0.18    -0.08   0.24  -0.12
  20   8    -0.00   0.04  -0.06     0.03  -0.22   0.16    -0.00  -0.04  -0.06
  21   1     0.05  -0.19   0.08    -0.16   0.50  -0.19     0.10  -0.36   0.13
  22   1    -0.01  -0.01   0.01    -0.02  -0.01   0.01     0.01  -0.00  -0.00
  23   8     0.00   0.00   0.01    -0.00  -0.01  -0.02    -0.00   0.01  -0.00
  24   1    -0.00  -0.00  -0.00     0.00  -0.00  -0.00    -0.01  -0.00  -0.00
                     19                     20                     21
                        a                      a                      a 
 Frequencies --   372.2626               343.1203               448.1185
 Red. masses --    99.0000                99.0000                99.0000
 Frc consts  --    99.0000                99.0000                99.0000
 IR Inten    --    99.0000                99.0000                99.0000
 Raman Activ --     0.0000                 0.0000                 0.0000
 Depolar     --     0.0000                 0.0000                 0.0000
 Atom AN      X      Y      Z        X      Y      Z        X      Y      Z
   1   1    -0.08   0.07   0.05     0.01   0.01   0.00    -0.03   0.11   0.04
   2   8     0.04   0.24   0.06    -0.01  -0.00   0.01     0.01   0.04  -0.00
   3   1     0.08  -0.87  -0.14    -0.01  -0.01  -0.01     0.03  -0.15  -0.01
   4   1    -0.18  -0.10  -0.14    -0.00   0.01  -0.03     0.18   0.13  -0.04
   5   8     0.04  -0.06  -0.04     0.03   0.02  -0.06    -0.03  -0.01  -0.03
   6   1    -0.07   0.20   0.08     0.00   0.02  -0.01     0.03  -0.18   0.01
   7   1     0.02  -0.02   0.01    -0.00   0.00   0.01    -0.02   0.02   0.01
   8   8    -0.03   0.02   0.00     0.01   0.03   0.03    -0.00   0.02   0.05
   9   1    -0.00   0.03   0.03    -0.01  -0.01   0.01    -0.05  -0.09  -0.02
  10   1    -0.03   0.01   0.02     0.10  -0.20   0.04     0.41  -0.06  -0.38
  11   8     0.01  -0.01   0.00    -0.07   0.03  -0.05    -0.06  -0.00  -0.01
  12   1     0.01  -0.02  -0.02    -0.13   0.01  -0.08    -0.06   0.38   0.35
  13   1    -0.00   0.00  -0.01     0.03  -0.03   0.01     0.06  -0.10  -0.03
  14   8    -0.00   0.01  -0.00     0.05  -0.04   0.06    -0.01  -0.06   0.02
  15   1     0.00   0.00  -0.01    -0.02  -0.02  -0.14    -0.11  -0.05   0.12
  16   1     0.06  -0.04   0.01     0.00   0.00   0.02    -0.19   0.07  -0.10
  17   8    -0.01  -0.00   0.00     0.01  -0.03   0.06    -0.01   0.02  -0.03
  18   1    -0.04   0.02  -0.00    -0.05   0.04  -0.00     0.17  -0.21   0.12
  19   1    -0.01   0.00  -0.01     0.59   0.21   0.17     0.02  -0.08   0.03
  20   8     0.01   0.00  -0.00    -0.02  -0.03  -0.17    -0.03   0.06  -0.02
  21   1     0.01   0.00  -0.01    -0.41   0.07   0.50     0.02  -0.07   0.02
  22   1    -0.06  -0.00   0.03    -0.00  -0.01   0.00     0.09   0.11  -0.10
  23   8     0.01  -0.02   0.00    -0.01  -0.00  -0.01     0.02  -0.01  -0.01
  24   1     0.06   0.03   0.00    -0.00   0.00  -0.02    -0.09  -0.08   0.13
                     22                     23                     24
                        a                      a                      a 
 Frequencies --   463.7601               471.3862               485.1138
 Red. masses --    99.0000                99.0000                99.0000
 Frc consts  --    99.0000                99.0000                99.0000
 IR Inten    --    99.0000                99.0000                99.0000
 Raman Activ --     0.0000                 0.0000                 0.0000
 Depolar     --     0.0000                 0.0000                 0.0000
 Atom AN      X      Y      Z        X      Y      Z        X      Y      Z
   1   1    -0.16   0.03   0.05    -0.43  -0.02   0.10    -0.17  -0.16  -0.00
   2   8     0.01   0.04  -0.04     0.03   0.05  -0.13     0.02   0.00  -0.06
   3   1     0.11  -0.08   0.13     0.29  -0.08   0.37     0.11   0.08   0.17
   4   1     0.13   0.06   0.13     0.06  -0.04   0.32    -0.20  -0.15   0.05
   5   8    -0.05   0.02  -0.02    -0.05   0.02  -0.05     0.07   0.02   0.02
   6   1     0.06  -0.14  -0.11     0.12  -0.05  -0.30    -0.01   0.24  -0.03
   7   1    -0.07   0.04  -0.00    -0.18   0.14  -0.01     0.05  -0.04   0.00
   8   8     0.01  -0.01   0.04     0.00  -0.02   0.08    -0.00  -0.03  -0.04
   9   1     0.06   0.04  -0.06     0.09  -0.03  -0.19     0.05   0.12   0.05
  10   1    -0.30   0.55  -0.20     0.15  -0.21   0.03    -0.02  -0.03   0.05
  11   8    -0.05  -0.14   0.03     0.02   0.02   0.00     0.00   0.03   0.00
  12   1     0.43  -0.15   0.22    -0.14   0.07  -0.04    -0.06   0.01  -0.04
  13   1    -0.00  -0.00  -0.04     0.00  -0.01   0.09    -0.07   0.07  -0.02
  14   8    -0.04   0.01   0.01    -0.00  -0.01  -0.03    -0.00  -0.05   0.02
  15   1    -0.03  -0.01  -0.18    -0.00  -0.00   0.06     0.10   0.03  -0.04
  16   1    -0.04  -0.03  -0.07     0.14  -0.08   0.04    -0.01  -0.10  -0.09
  17   8     0.03   0.01  -0.01     0.02  -0.01   0.01    -0.07   0.02   0.00
  18   1    -0.06  -0.02   0.08    -0.17   0.15  -0.05     0.14  -0.21   0.13
  19   1     0.14   0.05   0.04    -0.05  -0.02  -0.01    -0.02   0.17  -0.06
  20   8     0.06  -0.05  -0.02    -0.02   0.03   0.00     0.02  -0.07   0.02
  21   1    -0.12   0.08   0.11     0.05  -0.04  -0.04    -0.05   0.10  -0.02
  22   1     0.03   0.03  -0.02    -0.09  -0.10   0.10    -0.09   0.42  -0.17
  23   8     0.00   0.01  -0.00     0.03  -0.00   0.00     0.04  -0.03  -0.10
  24   1    -0.03  -0.02   0.04     0.04   0.03  -0.06    -0.05  -0.14   0.55
                     25                     26                     27
                        a                      a                      a 
 Frequencies --   503.6188               514.4482               559.9341
 Red. masses --    99.0000                99.0000                99.0000
 Frc consts  --    99.0000                99.0000                99.0000
 IR Inten    --    99.0000                99.0000                99.0000
 Raman Activ --     0.0000                 0.0000                 0.0000
 Depolar     --     0.0000                 0.0000                 0.0000
 Atom AN      X      Y      Z        X      Y      Z        X      Y      Z
   1   1    -0.27  -0.06   0.05    -0.25   0.00   0.06    -0.04   0.12   0.04
   2   8     0.03   0.00  -0.11     0.03  -0.03  -0.11     0.00  -0.02  -0.03
   3   1     0.19   0.07   0.26     0.17   0.06   0.23     0.03  -0.00   0.04
   4   1    -0.00   0.09  -0.30    -0.03   0.05  -0.28     0.09   0.09  -0.05
   5   8    -0.03  -0.04   0.13     0.01  -0.04   0.06    -0.06   0.03  -0.02
   6   1    -0.05   0.05   0.11    -0.05   0.07   0.09    -0.04  -0.16   0.13
   7   1     0.15  -0.30   0.01     0.19   0.07   0.02     0.37   0.11   0.03
   8   8    -0.04   0.01  -0.11     0.03   0.07  -0.01     0.02   0.03  -0.05
   9   1     0.05   0.31   0.27    -0.29  -0.35   0.09    -0.30  -0.28   0.23
  10   1     0.07   0.02  -0.09    -0.12   0.03   0.09     0.03  -0.01  -0.02
  11   8    -0.02  -0.02   0.03    -0.00   0.02  -0.01     0.03  -0.03  -0.00
  12   1    -0.02   0.10   0.10     0.08  -0.16  -0.11    -0.07   0.10   0.04
  13   1    -0.09   0.09  -0.21     0.15  -0.16   0.10     0.01  -0.02   0.11
  14   8    -0.01  -0.07   0.07     0.01   0.10  -0.04    -0.02   0.01  -0.01
  15   1     0.13   0.04  -0.01    -0.22  -0.07   0.01    -0.00   0.00  -0.12
  16   1    -0.04   0.15   0.09    -0.07   0.14   0.08     0.08  -0.17  -0.10
  17   8    -0.01  -0.00  -0.05    -0.02  -0.03  -0.01     0.08  -0.02   0.02
  18   1     0.16  -0.01  -0.11     0.16  -0.03  -0.09    -0.40   0.18   0.09
  19   1    -0.03   0.17  -0.07     0.09  -0.33   0.15    -0.12   0.32  -0.15
  20   8     0.01  -0.06   0.01    -0.03   0.12  -0.02     0.06  -0.14   0.05
  21   1    -0.04   0.09  -0.02     0.06  -0.18   0.07    -0.05   0.23  -0.12
  22   1    -0.02  -0.22   0.12    -0.08   0.06   0.01    -0.02   0.05  -0.02
  23   8     0.01   0.01   0.05     0.02  -0.01  -0.02    -0.00  -0.01  -0.02
  24   1     0.02   0.06  -0.23     0.03  -0.01   0.10     0.00  -0.01   0.06
                     28                     29                     30
                        a                      a                      a 
 Frequencies --   576.6505               538.9912               314.1259
 Red. masses --    99.0000                99.0000                99.0000
 Frc consts  --    99.0000                99.0000                99.0000
 IR Inten    --    99.0000                99.0000                99.0000
 Raman Activ --     0.0000                 0.0000                 0.0000
 Depolar     --     0.0000                 0.0000                 0.0000
 Atom AN      X      Y      Z        X      Y      Z        X      Y      Z
   1   1    -0.09   0.16   0.06    -0.02  -0.11  -0.02     0.03   0.03   0.01
   2   8    -0.01  -0.05  -0.04     0.00   0.02  -0.00     0.07   0.04   0.03
   3   1     0.05  -0.00   0.07     0.01   0.01   0.02     0.01   0.00  -0.00
   4   1    -0.03  -0.05   0.14    -0.16  -0.15   0.11    -0.11  -0.11   0.17
   5   8     0.01   0.06   0.01     0.07  -0.02  -0.04    -0.33  -0.31   0.52
   6   1    -0.00  -0.01   0.02     0.00   0.15  -0.05    -0.08  -0.05   0.11
   7   1     0.13  -0.11   0.01     0.01   0.25   0.01    -0.02   0.03  -0.08
   8   8    -0.01  -0.01  -0.06     0.02   0.01   0.06    -0.04  -0.13  -0.29
   9   1    -0.02   0.10   0.17    -0.11  -0.27  -0.13    -0.01  -0.05  -0.11
  10   1    -0.01  -0.09   0.09    -0.11   0.10   0.03     0.05  -0.02  -0.02
  11   8     0.02   0.06  -0.04     0.02  -0.00   0.00     0.01   0.01   0.01
  12   1     0.01  -0.12  -0.13    -0.13   0.12   0.03    -0.01   0.03   0.03
  13   1    -0.03   0.05  -0.08     0.04  -0.05   0.19     0.04   0.02  -0.02
  14   8     0.01   0.00   0.00    -0.03   0.01  -0.03     0.08   0.21   0.00
  15   1     0.05   0.02   0.07    -0.05  -0.01  -0.06    -0.01   0.04   0.02
  16   1    -0.20  -0.23  -0.40    -0.09   0.03  -0.05     0.08   0.02  -0.09
  17   8     0.05   0.09   0.01    -0.08   0.08  -0.03     0.17   0.26  -0.32
  18   1    -0.13  -0.26   0.43     0.39  -0.33   0.09     0.02   0.07  -0.06
  19   1     0.04  -0.19   0.08    -0.03   0.25  -0.10     0.09  -0.07   0.06
  20   8    -0.03   0.08  -0.03     0.06  -0.13   0.02     0.01  -0.07   0.01
  21   1     0.04  -0.12   0.05    -0.09   0.22  -0.06    -0.07   0.08   0.02
  22   1     0.17   0.02  -0.09     0.10  -0.22   0.07     0.02   0.04  -0.02
  23   8    -0.07  -0.06   0.09    -0.01   0.01   0.07     0.02  -0.01   0.03
  24   1     0.18   0.15  -0.27     0.01   0.07  -0.31     0.01  -0.01   0.03
                     31                     32                     33
                        a                      a                      a 
 Frequencies --   611.5136               618.0624               462.4072
 Red. masses --    99.0000                99.0000                99.0000
 Frc consts  --    99.0000                99.0000                99.0000
 IR Inten    --    99.0000                99.0000                99.0000
 Raman Activ --     0.0000                 0.0000                 0.0000
 Depolar     --     0.0000                 0.0000                 0.0000
 Atom AN      X      Y      Z        X      Y      Z        X      Y      Z
   1   1     0.03   0.74   0.19    -0.06   0.38   0.11    -0.04   0.17   0.05
   2   8    -0.02  -0.23  -0.02     0.01  -0.15  -0.08     0.01   0.06   0.00
   3   1    -0.04   0.01  -0.03     0.03   0.11   0.07     0.04  -0.19  -0.00
   4   1    -0.11  -0.15   0.28    -0.09   0.05  -0.41     0.35   0.24  -0.01
   5   8     0.01   0.06  -0.06     0.10  -0.03   0.07    -0.14  -0.05   0.01
   6   1     0.03   0.05  -0.11    -0.12   0.09   0.28     0.05  -0.40   0.00
   7   1     0.13  -0.07   0.01    -0.20   0.29  -0.02    -0.05   0.01  -0.01
   8   8     0.02  -0.00  -0.04    -0.05  -0.05   0.09    -0.00  -0.01  -0.00
   9   1    -0.07   0.00   0.15     0.20   0.04  -0.35     0.06   0.06  -0.05
  10   1    -0.03   0.05  -0.01     0.11  -0.06  -0.06    -0.20  -0.10   0.32
  11   8    -0.01  -0.01   0.00    -0.04   0.02   0.03     0.05   0.06  -0.01
  12   1    -0.00   0.02   0.02     0.12  -0.07   0.02    -0.16  -0.13  -0.28
  13   1    -0.03   0.04  -0.07    -0.10   0.11   0.25    -0.04   0.06   0.05
  14   8    -0.00  -0.01   0.01    -0.02  -0.02  -0.06     0.02   0.02   0.00
  15   1     0.05   0.02   0.04     0.14   0.06  -0.08     0.08   0.04  -0.02
  16   1     0.16   0.02   0.16    -0.04  -0.02  -0.06    -0.25   0.22   0.00
  17   8    -0.08   0.01  -0.00     0.03  -0.01  -0.00     0.02  -0.03  -0.01
  18   1     0.23  -0.03  -0.15    -0.08  -0.00   0.06     0.23  -0.12  -0.03
  19   1     0.02  -0.01   0.01    -0.03   0.06  -0.03    -0.04   0.12  -0.06
  20   8    -0.01   0.01  -0.01    -0.01  -0.01   0.01     0.03  -0.07   0.02
  21   1    -0.01  -0.01   0.02    -0.00   0.03  -0.02    -0.02   0.10  -0.05
  22   1    -0.09  -0.05   0.06     0.02   0.05  -0.03     0.08   0.08  -0.08
  23   8     0.04   0.02  -0.04    -0.01  -0.03   0.01     0.01   0.00   0.00
  24   1    -0.05  -0.04   0.07     0.08   0.04  -0.03    -0.09  -0.07   0.09
                     34                     35                     36
                        a                      a                      a 
 Frequencies --   675.0460               732.3786               442.6645
 Red. masses --    99.0000                99.0000                99.0000
 Frc consts  --    99.0000                99.0000                99.0000
 IR Inten    --    99.0000                99.0000                99.0000
 Raman Activ --     0.0000                 0.0000                 0.0000
 Depolar     --     0.0000                 0.0000                 0.0000
 Atom AN      X      Y      Z        X      Y      Z        X      Y      Z
   1   1    -0.01  -0.04  -0.01    -0.00  -0.00   0.00     0.08  -0.02  -0.02
   2   8    -0.01   0.02   0.01     0.01  -0.01   0.01    -0.02   0.03   0.03
   3   1     0.01  -0.02   0.01    -0.00  -0.01  -0.01    -0.05   0.03  -0.06
   4   1    -0.03  -0.05   0.08     0.01   0.02  -0.05     0.11   0.07   0.02
   5   8    -0.02  -0.04  -0.00     0.01  -0.02   0.05    -0.04   0.01  -0.02
   6   1     0.05   0.06  -0.16     0.02   0.07  -0.07     0.02  -0.13  -0.00
   7   1     0.14   0.11   0.01    -0.22  -0.11  -0.01    -0.02   0.01  -0.00
   8   8     0.00  -0.03   0.00     0.14   0.11   0.07    -0.01  -0.00   0.01
   9   1    -0.06  -0.06   0.05    -0.22  -0.47  -0.15     0.01   0.00  -0.01
  10   1     0.03   0.03  -0.06     0.09  -0.09  -0.01    -0.00   0.03  -0.03
  11   8    -0.02  -0.03   0.02    -0.05   0.05   0.00     0.00  -0.01  -0.00
  12   1     0.05   0.01   0.06     0.19  -0.18  -0.04    -0.02   0.05   0.04
  13   1    -0.12   0.13   0.05    -0.16   0.17  -0.52     0.00  -0.01  -0.01
  14   8    -0.02  -0.03  -0.04    -0.07  -0.01   0.07     0.00  -0.01   0.01
  15   1     0.17   0.07   0.14     0.26   0.11   0.20    -0.01  -0.01   0.01
  16   1    -0.06   0.23   0.20    -0.08   0.03  -0.05    -0.02   0.00  -0.03
  17   8     0.00  -0.09   0.04     0.02   0.00  -0.02    -0.01  -0.00  -0.07
  18   1     0.02   0.17  -0.23    -0.03  -0.02   0.04     0.11  -0.10   0.01
  19   1     0.01   0.04  -0.01    -0.02   0.13  -0.05     0.01   0.04  -0.01
  20   8    -0.01  -0.00  -0.02    -0.01  -0.03  -0.01     0.03  -0.02  -0.00
  21   1    -0.01  -0.03   0.04    -0.02   0.01   0.01    -0.01   0.02   0.01
  22   1     0.36   0.37  -0.36    -0.07  -0.05   0.06    -0.58   0.13   0.21
  23   8    -0.16  -0.11   0.08     0.02   0.01  -0.01    -0.02  -0.11  -0.01
  24   1     0.32   0.22  -0.15    -0.04  -0.03   0.02     0.62   0.32   0.07
                     37                     38                     39
                        a                      a                      a 
 Frequencies --   782.4821               633.1428               844.0442
 Red. masses --    99.0000                99.0000                99.0000
 Frc consts  --    99.0000                99.0000                99.0000
 IR Inten    --    99.0000                99.0000                99.0000
 Raman Activ --     0.0000                 0.0000                 0.0000
 Depolar     --     0.0000                 0.0000                 0.0000
 Atom AN      X      Y      Z        X      Y      Z        X      Y      Z
   1   1    -0.01  -0.07  -0.02     0.03  -0.17  -0.05    -0.00   0.03   0.01
   2   8    -0.00   0.03   0.00     0.01   0.06   0.02     0.01  -0.02  -0.00
   3   1     0.01  -0.03   0.01    -0.01  -0.05  -0.04     0.00   0.01   0.00
   4   1     0.17   0.17  -0.16     0.00  -0.06   0.21    -0.06  -0.05   0.02
   5   8    -0.08   0.02   0.04    -0.02   0.00  -0.07     0.04  -0.02   0.00
   6   1     0.01  -0.12  -0.01    -0.00  -0.10   0.02    -0.01   0.06   0.01
   7   1    -0.02  -0.01  -0.00     0.29   0.21   0.03    -0.07  -0.05  -0.00
   8   8     0.02   0.02   0.01    -0.02  -0.08  -0.04     0.04   0.02   0.01
   9   1    -0.05  -0.10  -0.02    -0.04   0.02   0.12    -0.06  -0.14  -0.06
  10   1    -0.02   0.02   0.01     0.27  -0.19  -0.11    -0.19   0.19   0.03
  11   8     0.01   0.01  -0.00    -0.13   0.08   0.05     0.12  -0.09  -0.03
  12   1    -0.07   0.05  -0.00     0.29  -0.23  -0.01    -0.39   0.35   0.06
  13   1    -0.11   0.13  -0.03    -0.19   0.22   0.21    -0.16   0.18  -0.06
  14   8    -0.00  -0.03   0.05    -0.01  -0.05  -0.02     0.02  -0.07   0.09
  15   1     0.17   0.06  -0.22     0.27   0.10  -0.32     0.26   0.08  -0.44
  16   1     0.60  -0.42   0.09    -0.10   0.11   0.01    -0.24   0.15  -0.05
  17   8    -0.18   0.08   0.00     0.00   0.02  -0.02     0.08  -0.03   0.01
  18   1     0.24  -0.16  -0.00     0.12  -0.05  -0.03    -0.15   0.10   0.00
  19   1     0.02  -0.15   0.06    -0.01  -0.11   0.04     0.02  -0.28   0.10
  20   8    -0.02   0.04   0.00    -0.05   0.06   0.03    -0.03   0.06   0.01
  21   1     0.02  -0.04   0.02     0.04  -0.07   0.01     0.05  -0.07  -0.00
  22   1     0.14   0.08  -0.10    -0.12  -0.14   0.13    -0.05  -0.02   0.03
  23   8    -0.03  -0.03   0.03     0.05   0.04  -0.02     0.00   0.01  -0.01
  24   1     0.03   0.03  -0.07    -0.10  -0.06   0.03    -0.01  -0.01   0.03
                     40                     41                     42
                        a                      a                      a 
 Frequencies --   823.2575               653.4987               900.7006
 Red. masses --    99.0000                99.0000                99.0000
 Frc consts  --    99.0000                99.0000                99.0000
 IR Inten    --    99.0000                99.0000                99.0000
 Raman Activ --     0.0000                 0.0000                 0.0000
 Depolar     --     0.0000                 0.0000                 0.0000
 Atom AN      X      Y      Z        X      Y      Z        X      Y      Z
   1   1     0.04   0.04   0.00     0.01   0.09   0.02     0.08   0.07   0.01
   2   8    -0.00  -0.01   0.04    -0.01  -0.03  -0.00    -0.02  -0.04   0.06
   3   1    -0.03  -0.02  -0.04    -0.01   0.00  -0.01    -0.06   0.00  -0.07
   4   1     0.08   0.09  -0.12    -0.02  -0.02   0.03     0.11   0.15  -0.30
   5   8    -0.05  -0.05   0.13     0.01  -0.00   0.03    -0.08  -0.11   0.19
   6   1     0.12   0.18  -0.35     0.04   0.08  -0.12     0.20   0.27  -0.59
   7   1    -0.17  -0.49  -0.02    -0.19  -0.23  -0.02     0.26   0.39   0.02
   8   8     0.08   0.10  -0.09     0.04   0.08  -0.00    -0.06  -0.09   0.03
   9   1    -0.11  -0.10   0.08    -0.01  -0.02  -0.01     0.07   0.12   0.02
  10   1     0.03   0.02  -0.04     0.19  -0.20  -0.01    -0.02  -0.01   0.03
  11   8    -0.01   0.00   0.01    -0.07   0.06   0.02     0.01   0.00  -0.01
  12   1     0.05  -0.02   0.02     0.13  -0.13  -0.04    -0.03   0.01  -0.01
  13   1    -0.08   0.07   0.62     0.17  -0.19  -0.14     0.02  -0.02  -0.20
  14   8    -0.01   0.00  -0.12     0.00   0.05   0.15     0.01  -0.00   0.04
  15   1     0.11   0.05   0.07    -0.24  -0.10  -0.65    -0.03  -0.01  -0.05
  16   1    -0.04  -0.01  -0.04    -0.05   0.06   0.03    -0.05  -0.02  -0.06
  17   8     0.02   0.01  -0.03     0.00  -0.02   0.01     0.02   0.01  -0.03
  18   1    -0.04  -0.03   0.07     0.03   0.01  -0.03    -0.05  -0.03   0.08
  19   1     0.01   0.04  -0.01    -0.11   0.02  -0.04    -0.01  -0.03   0.00
  20   8    -0.00  -0.01  -0.01     0.02  -0.03   0.10     0.00   0.01   0.00
  21   1    -0.02  -0.00   0.02     0.04   0.15  -0.16     0.01   0.00  -0.01
  22   1    -0.04  -0.03   0.03     0.11   0.11  -0.11    -0.06  -0.04   0.05
  23   8     0.01   0.01  -0.01    -0.05  -0.04   0.03     0.02   0.01  -0.01
  24   1    -0.02  -0.02   0.01     0.11   0.08  -0.06    -0.04  -0.03   0.02
                     43                     44                     45
                        a                      a                      a 
 Frequencies --  1585.6951              1614.6390              1596.0861
 Red. masses --    99.0000                99.0000                99.0000
 Frc consts  --    99.0000                99.0000                99.0000
 IR Inten    --    99.0000                99.0000                99.0000
 Raman Activ --     0.0000                 0.0000                 0.0000
 Depolar     --     0.0000                 0.0000                 0.0000
 Atom AN      X      Y      Z        X      Y      Z        X      Y      Z
   1   1     0.02  -0.00  -0.01     0.01  -0.00  -0.00     0.01  -0.00  -0.00
   2   8    -0.01   0.00   0.00    -0.00   0.00   0.00    -0.00   0.00  -0.00
   3   1     0.01  -0.01   0.01     0.00  -0.00   0.00     0.00  -0.00   0.00
   4   1    -0.09  -0.04  -0.05    -0.10  -0.04  -0.07     0.03   0.01   0.05
   5   8     0.01   0.04   0.03     0.02   0.04   0.04    -0.01  -0.00  -0.01
   6   1     0.05  -0.11  -0.06     0.05  -0.11  -0.06    -0.01   0.02   0.00
   7   1     0.30  -0.20   0.05     0.02  -0.02   0.00     0.45  -0.28   0.06
   8   8    -0.10   0.06   0.07    -0.01   0.01   0.00    -0.16   0.09   0.10
   9   1     0.11  -0.06  -0.31     0.01  -0.00  -0.02     0.18  -0.06  -0.44
  10   1     0.14   0.19  -0.31    -0.07  -0.11   0.17    -0.05  -0.06   0.10
  11   8     0.01  -0.02   0.16    -0.02   0.00  -0.09    -0.00   0.01  -0.05
  12   1    -0.21  -0.15  -0.31     0.13   0.09   0.20     0.07   0.04   0.10
  13   1    -0.00   0.01  -0.01     0.04  -0.05   0.01     0.21  -0.25  -0.01
  14   8     0.01   0.00  -0.00    -0.03   0.00  -0.00    -0.12   0.03   0.00
  15   1    -0.04  -0.02   0.00     0.07   0.03   0.00     0.28   0.12  -0.01
  16   1    -0.09  -0.15  -0.23    -0.17  -0.29  -0.42     0.07   0.11   0.16
  17   8    -0.01   0.01   0.11    -0.01   0.02   0.20     0.00  -0.00  -0.07
  18   1     0.11   0.12  -0.21     0.21   0.21  -0.39    -0.08  -0.09   0.15
  19   1    -0.24  -0.09  -0.08     0.09   0.04   0.03     0.19   0.07   0.07
  20   8     0.10   0.01  -0.03    -0.04  -0.01   0.01    -0.08  -0.01   0.02
  21   1    -0.16   0.05   0.19     0.06  -0.02  -0.07     0.12  -0.04  -0.15
  22   1    -0.09   0.11  -0.00     0.21  -0.27   0.03     0.04  -0.05   0.00
  23   8     0.04  -0.02   0.03    -0.10   0.05  -0.08    -0.02   0.01  -0.01
  24   1    -0.08  -0.03  -0.11     0.19   0.05   0.27     0.04   0.01   0.05
                     46                     47                     48
                        a                      a                      a 
 Frequencies --  1600.8353              1565.0234              1573.1808
 Red. masses --    99.0000                99.0000                99.0000
 Frc consts  --    99.0000                99.0000                99.0000
 IR Inten    --    99.0000                99.0000                99.0000
 Raman Activ --     0.0000                 0.0000                 0.0000
 Depolar     --     0.0000                 0.0000                 0.0000
 Atom AN      X      Y      Z        X      Y      Z        X      Y      Z
   1   1    -0.00   0.00   0.00     0.19   0.03  -0.05    -0.01  -0.00   0.00
   2   8    -0.00  -0.00  -0.00    -0.07  -0.01  -0.03     0.00  -0.00   0.00
   3   1     0.00   0.00   0.00     0.11  -0.02   0.15    -0.00   0.00  -0.00
   4   1     0.04   0.02   0.02     0.48   0.23   0.27     0.04   0.02   0.03
   5   8    -0.01  -0.02  -0.01    -0.07  -0.20  -0.12    -0.01  -0.02  -0.02
   6   1    -0.02   0.05   0.02    -0.21   0.58   0.22    -0.02   0.05   0.02
   7   1    -0.00   0.01   0.00     0.03   0.00   0.00     0.11  -0.07   0.02
   8   8     0.00  -0.00  -0.00    -0.01   0.00   0.01    -0.04   0.02   0.03
   9   1    -0.00  -0.01  -0.01     0.01  -0.00  -0.02     0.04  -0.02  -0.11
  10   1     0.10   0.13  -0.22     0.01   0.02  -0.03    -0.11  -0.20   0.29
  11   8     0.01  -0.01   0.12    -0.00  -0.00   0.02    -0.02   0.02  -0.14
  12   1    -0.16  -0.12  -0.24    -0.02  -0.01  -0.03     0.19   0.14   0.29
  13   1    -0.04   0.06  -0.01     0.01  -0.01  -0.01    -0.05   0.06   0.00
  14   8     0.03  -0.00   0.00    -0.00   0.00   0.00     0.03  -0.01   0.00
  15   1    -0.08  -0.03   0.00     0.01   0.00  -0.00    -0.07  -0.02  -0.01
  16   1     0.07   0.10   0.16    -0.06  -0.10  -0.14     0.03   0.05   0.07
  17   8     0.00   0.00  -0.08    -0.00   0.01   0.07     0.00  -0.00  -0.03
  18   1    -0.08  -0.09   0.17     0.08   0.08  -0.14    -0.04  -0.03   0.07
  19   1    -0.09  -0.03  -0.03     0.01   0.00   0.00    -0.48  -0.23  -0.15
  20   8     0.04   0.00  -0.01    -0.00  -0.00   0.00     0.20   0.04  -0.06
  21   1    -0.05   0.02   0.06     0.01  -0.00  -0.01    -0.32   0.08   0.41
  22   1     0.35  -0.45   0.03    -0.01   0.01   0.00     0.04  -0.05   0.00
  23   8    -0.17   0.08  -0.12     0.00  -0.00   0.00    -0.02   0.01  -0.01
  24   1     0.32   0.09   0.45    -0.00  -0.00  -0.01     0.03   0.01   0.05
                     49                     50                     51
                        a                      a                      a 
 Frequencies --  1554.0948              1548.4975              3152.1924
 Red. masses --    99.0000                99.0000                99.0000
 Frc consts  --    99.0000                99.0000                99.0000
 IR Inten    --    99.0000                99.0000                99.0000
 Raman Activ --     0.0000                 0.0000                 0.0000
 Depolar     --     0.0000                 0.0000                 0.0000
 Atom AN      X      Y      Z        X      Y      Z        X      Y      Z
   1   1     0.07   0.01  -0.02     0.64   0.05  -0.19     0.03  -0.01   0.06
   2   8    -0.03   0.00  -0.01    -0.26   0.02  -0.08    -0.01   0.00  -0.01
   3   1     0.04  -0.01   0.06     0.35  -0.13   0.50     0.02   0.01  -0.00
   4   1    -0.02  -0.01  -0.02    -0.14  -0.07  -0.08     0.02  -0.08  -0.03
   5   8     0.01   0.01   0.01     0.03   0.06   0.04    -0.18  -0.01  -0.07
   6   1     0.01  -0.03  -0.01     0.05  -0.16  -0.07     0.69   0.12   0.29
   7   1    -0.21   0.14  -0.03     0.00  -0.01   0.00     0.02  -0.00  -0.20
   8   8     0.06  -0.04  -0.05     0.00   0.00   0.00    -0.01  -0.00   0.05
   9   1    -0.06   0.07   0.23    -0.00  -0.01  -0.01     0.00   0.00   0.01
  10   1     0.04   0.05  -0.08    -0.01  -0.02   0.03    -0.01  -0.01  -0.01
  11   8     0.01  -0.00   0.04    -0.00   0.00  -0.01     0.02   0.02  -0.01
  12   1    -0.05  -0.04  -0.08     0.02   0.01   0.03    -0.05  -0.08   0.06
  13   1     0.39  -0.46   0.01    -0.05   0.06   0.00    -0.34  -0.30  -0.01
  14   8    -0.22   0.05  -0.00     0.03  -0.01   0.00     0.08   0.08   0.00
  15   1     0.52   0.22  -0.01    -0.06  -0.03   0.00     0.02  -0.03  -0.00
  16   1    -0.00  -0.00  -0.00     0.02   0.04   0.05     0.15   0.18  -0.18
  17   8    -0.00  -0.00   0.00     0.00  -0.00  -0.02    -0.04  -0.05   0.04
  18   1     0.00   0.00  -0.00    -0.03  -0.03   0.05     0.01   0.02   0.03
  19   1    -0.19  -0.10  -0.06     0.02   0.01   0.01    -0.00   0.00   0.00
  20   8     0.07   0.02  -0.03    -0.01  -0.00   0.00     0.00  -0.00  -0.00
  21   1    -0.13   0.02   0.17     0.01  -0.00  -0.02    -0.00   0.00  -0.00
  22   1    -0.00  -0.00   0.00    -0.00  -0.01   0.00    -0.01  -0.01  -0.02
  23   8    -0.00   0.00  -0.00    -0.00   0.00  -0.00     0.00   0.00   0.01
  24   1    -0.00  -0.00   0.00    -0.00  -0.00   0.01     0.00  -0.00   0.00
                     52                     53                     54
                        a                      a                      a 
 Frequencies --  3483.6684              3101.2388              3263.1699
 Red. masses --    99.0000                99.0000                99.0000
 Frc consts  --    99.0000                99.0000                99.0000
 IR Inten    --    99.0000                99.0000                99.0000
 Raman Activ --     0.0000                 0.0000                 0.0000
 Depolar     --     0.0000                 0.0000                 0.0000
 Atom AN      X      Y      Z        X      Y      Z        X      Y      Z
   1   1    -0.00  -0.00  -0.00    -0.01   0.00  -0.03     0.06  -0.05   0.21
   2   8    -0.00  -0.00   0.00     0.00  -0.00   0.01    -0.02   0.01  -0.05
   3   1     0.00   0.00  -0.00    -0.01  -0.00   0.00     0.00   0.00  -0.01
   4   1    -0.01   0.02   0.01     0.00   0.02   0.01     0.06  -0.10  -0.03
   5   8     0.00  -0.00  -0.00     0.11   0.02   0.04    -0.06   0.02  -0.01
   6   1     0.01  -0.00   0.00    -0.43  -0.07  -0.18     0.19   0.03   0.08
   7   1    -0.00  -0.00   0.00     0.08  -0.02  -0.74     0.02  -0.00  -0.19
   8   8     0.00  -0.00  -0.00    -0.02  -0.00   0.18    -0.00  -0.00   0.05
   9   1    -0.00   0.00  -0.00    -0.03   0.02   0.01    -0.02   0.01  -0.00
  10   1    -0.04  -0.04  -0.03    -0.00  -0.00  -0.01    -0.03  -0.02  -0.04
  11   8     0.01   0.00   0.01     0.01   0.02  -0.01     0.05   0.07  -0.05
  12   1     0.02   0.03  -0.02    -0.04  -0.06   0.05    -0.18  -0.24   0.23
  13   1     0.00   0.00   0.00    -0.31  -0.26  -0.00     0.05   0.04   0.00
  14   8    -0.00  -0.00   0.00     0.07   0.08   0.00     0.00  -0.05   0.00
  15   1     0.00  -0.00  -0.00     0.03  -0.03  -0.00    -0.06   0.14  -0.00
  16   1    -0.08  -0.09   0.06     0.02   0.02  -0.03    -0.40  -0.47   0.47
  17   8    -0.09  -0.14  -0.15    -0.01  -0.01   0.00     0.11   0.13  -0.10
  18   1     0.42   0.66   0.54     0.00   0.01   0.01    -0.02  -0.04  -0.06
  19   1     0.02  -0.02  -0.05    -0.00   0.00   0.00     0.01  -0.01  -0.04
  20   8    -0.01   0.00   0.01     0.00  -0.00  -0.00    -0.00   0.00   0.01
  21   1     0.00   0.00   0.00    -0.00   0.00  -0.00    -0.00   0.00   0.00
  22   1    -0.04  -0.04  -0.08     0.00  -0.00   0.00     0.03   0.03   0.07
  23   8     0.01   0.01   0.02     0.00   0.00  -0.00    -0.01  -0.01  -0.02
  24   1    -0.01   0.02   0.01    -0.00  -0.00   0.00    -0.01   0.02   0.00
                     55                     56                     57
                        a                      a                      a 
 Frequencies --  3193.7102              3392.8526              3420.5610
 Red. masses --    99.0000                99.0000                99.0000
 Frc consts  --    99.0000                99.0000                99.0000
 IR Inten    --    99.0000                99.0000                99.0000
 Raman Activ --     0.0000                 0.0000                 0.0000
 Depolar     --     0.0000                 0.0000                 0.0000
 Atom AN      X      Y      Z        X      Y      Z        X      Y      Z
   1   1     0.01  -0.01   0.03    -0.00  -0.00   0.00    -0.00   0.00  -0.01
   2   8    -0.00   0.00  -0.01     0.00   0.00  -0.00    -0.00  -0.00   0.00
   3   1     0.00   0.00  -0.00    -0.00  -0.00   0.00     0.01   0.00  -0.01
   4   1     0.02  -0.04  -0.02     0.00  -0.00  -0.00    -0.52   0.77   0.21
   5   8    -0.05   0.00  -0.02     0.00   0.00   0.00     0.10  -0.19  -0.06
   6   1     0.20   0.04   0.08    -0.01  -0.00  -0.00     0.14  -0.00   0.04
   7   1     0.06  -0.02  -0.54     0.02  -0.01   0.09     0.01  -0.00  -0.06
   8   8     0.00  -0.01   0.14     0.18  -0.12   0.07     0.00  -0.00   0.02
   9   1    -0.07   0.04  -0.02    -0.74   0.49  -0.39    -0.01   0.01  -0.00
  10   1     0.01   0.00   0.01    -0.00  -0.00  -0.00     0.01   0.01   0.01
  11   8    -0.02  -0.03   0.02     0.00   0.00   0.00    -0.00  -0.00  -0.00
  12   1     0.07   0.10  -0.09    -0.00  -0.00   0.00    -0.00  -0.00   0.00
  13   1     0.54   0.48   0.01    -0.04  -0.04  -0.00     0.00   0.00  -0.00
  14   8    -0.12  -0.13  -0.00     0.01   0.00   0.00    -0.00   0.00   0.00
  15   1    -0.04   0.05  -0.00    -0.01   0.02  -0.00     0.00  -0.00   0.00
  16   1     0.10   0.12  -0.12     0.00   0.00  -0.00    -0.04  -0.06   0.05
  17   8    -0.03  -0.03   0.03     0.00   0.00   0.00     0.01   0.02  -0.01
  18   1     0.00   0.01   0.02    -0.00  -0.01  -0.00    -0.01  -0.02  -0.02
  19   1    -0.00  -0.00   0.01     0.00  -0.00  -0.00     0.01  -0.01  -0.02
  20   8    -0.00   0.00  -0.00    -0.00   0.00   0.00    -0.00   0.00   0.00
  21   1     0.00  -0.00  -0.00     0.00   0.00   0.00    -0.00  -0.00   0.00
  22   1    -0.01  -0.01  -0.02    -0.02  -0.02  -0.05    -0.00  -0.00  -0.00
  23   8     0.00   0.00   0.01     0.01   0.00   0.01     0.00  -0.00   0.00
  24   1     0.00  -0.00   0.00    -0.01   0.01   0.00    -0.00   0.00   0.00
                     58                     59                     60
                        a                      a                      a 
 Frequencies --  3248.9998              3396.2433              3410.3859
 Red. masses --    99.0000                99.0000                99.0000
 Frc consts  --    99.0000                99.0000                99.0000
 IR Inten    --    99.0000                99.0000                99.0000
 Raman Activ --     0.0000                 0.0000                 0.0000
 Depolar     --     0.0000                 0.0000                 0.0000
 Atom AN      X      Y      Z        X      Y      Z        X      Y      Z
   1   1     0.02  -0.01   0.05     0.00   0.00  -0.00    -0.00   0.00  -0.00
   2   8    -0.00   0.00  -0.01    -0.00  -0.00   0.00     0.00   0.00  -0.00
   3   1     0.00   0.00  -0.00     0.00   0.00  -0.00    -0.00  -0.00   0.00
   4   1     0.03  -0.05  -0.02     0.01  -0.01  -0.00     0.01  -0.01  -0.00
   5   8    -0.03   0.01  -0.01     0.00   0.00   0.00    -0.00   0.00   0.00
   6   1     0.12   0.02   0.05    -0.01  -0.00  -0.00    -0.00   0.00  -0.00
   7   1     0.01  -0.00  -0.10    -0.00   0.00  -0.01     0.00   0.00   0.00
   8   8    -0.00  -0.00   0.02    -0.01   0.01  -0.00     0.00  -0.00   0.00
   9   1    -0.01   0.00  -0.00     0.05  -0.03   0.02    -0.01   0.00  -0.00
  10   1     0.07   0.05   0.09     0.02   0.02   0.02     0.58   0.50   0.53
  11   8    -0.12  -0.14   0.10    -0.00  -0.00  -0.01    -0.12  -0.10  -0.15
  12   1     0.38   0.53  -0.49    -0.01  -0.02   0.01    -0.09  -0.11   0.06
  13   1    -0.12  -0.10  -0.01     0.00   0.00   0.00     0.01   0.01   0.00
  14   8     0.01   0.08  -0.00    -0.00   0.00  -0.00    -0.01   0.01  -0.00
  15   1     0.09  -0.21   0.00     0.00  -0.01   0.00     0.01  -0.05   0.00
  16   1    -0.19  -0.23   0.23    -0.03  -0.04   0.04     0.00   0.00  -0.01
  17   8     0.05   0.07  -0.05     0.02   0.03   0.01    -0.01  -0.01  -0.01
  18   1    -0.02  -0.04  -0.04    -0.05  -0.07  -0.07     0.03   0.04   0.04
  19   1    -0.02   0.01   0.05     0.02  -0.01  -0.04     0.08  -0.06  -0.20
  20   8     0.00  -0.01  -0.01    -0.00   0.00   0.01    -0.01   0.02   0.05
  21   1     0.00  -0.00  -0.00    -0.01  -0.00  -0.00    -0.03  -0.01  -0.01
  22   1     0.01   0.01   0.02    -0.34  -0.36  -0.73     0.02   0.02   0.04
  23   8    -0.00  -0.00  -0.00     0.13   0.01   0.16    -0.01  -0.00  -0.01
  24   1    -0.00   0.00   0.00    -0.17   0.34   0.09     0.01  -0.01  -0.00
                     61                     62                     63
                        a                      a                      a 
 Frequencies --  3270.5774              3359.3088              3430.7141
 Red. masses --    99.0000                99.0000                99.0000
 Frc consts  --    99.0000                99.0000                99.0000
 IR Inten    --    99.0000                99.0000                99.0000
 Raman Activ --     0.0000                 0.0000                 0.0000
 Depolar     --     0.0000                 0.0000                 0.0000
 Atom AN      X      Y      Z        X      Y      Z        X      Y      Z
   1   1    -0.25   0.23  -0.88    -0.00   0.00   0.00     0.00   0.00  -0.00
   2   8     0.06  -0.06   0.21     0.00   0.00  -0.00     0.00   0.00  -0.00
   3   1     0.01  -0.01   0.03    -0.00  -0.00   0.00    -0.00  -0.00   0.00
   4   1     0.02  -0.04  -0.01     0.00  -0.00  -0.00     0.01  -0.01  -0.00
   5   8    -0.04   0.01  -0.01     0.00   0.00  -0.00    -0.00   0.00   0.00
   6   1     0.12   0.02   0.06    -0.00  -0.00   0.00    -0.00   0.00  -0.00
   7   1     0.01  -0.00  -0.06    -0.00   0.00  -0.00     0.00   0.00  -0.00
   8   8    -0.00  -0.00   0.01    -0.00   0.00  -0.00     0.00  -0.00   0.00
   9   1    -0.01   0.00  -0.00     0.01  -0.01   0.00    -0.00   0.00  -0.00
  10   1    -0.00  -0.00  -0.01     0.00   0.00   0.00    -0.14  -0.11  -0.12
  11   8     0.01   0.01  -0.01     0.00   0.00  -0.00     0.03   0.01   0.04
  12   1    -0.02  -0.03   0.03    -0.01  -0.01   0.01     0.04   0.05  -0.04
  13   1     0.01   0.01   0.00    -0.00  -0.00   0.00    -0.00   0.00  -0.00
  14   8     0.00  -0.01   0.00     0.00  -0.00  -0.00    -0.01   0.02  -0.00
  15   1    -0.01   0.02  -0.00    -0.00   0.00   0.00     0.03  -0.08   0.00
  16   1    -0.09  -0.11   0.11    -0.02  -0.03   0.03     0.01   0.02  -0.01
  17   8     0.03   0.03  -0.02     0.01   0.01  -0.00     0.00   0.01   0.01
  18   1    -0.01  -0.01  -0.02    -0.01  -0.02  -0.02    -0.03  -0.04  -0.03
  19   1     0.00  -0.00  -0.01     0.00  -0.00  -0.01     0.36  -0.25  -0.82
  20   8    -0.00   0.00   0.00    -0.00   0.00   0.00    -0.07   0.07   0.21
  21   1    -0.00   0.00   0.00    -0.00   0.00  -0.00    -0.10  -0.04  -0.03
  22   1     0.01   0.01   0.02    -0.17  -0.12  -0.31     0.02   0.02   0.04
  23   8    -0.00  -0.00  -0.00    -0.07   0.22   0.12    -0.01  -0.00  -0.01
  24   1    -0.00   0.00  -0.00     0.43  -0.76  -0.16     0.01  -0.01  -0.00
                     64                     65                     66
                        a                      a                      a 
 Frequencies --  3518.3059              3331.1983              3546.2032
 Red. masses --    99.0000                99.0000                99.0000
 Frc consts  --    99.0000                99.0000                99.0000
 IR Inten    --    99.0000                99.0000                99.0000
 Raman Activ --     0.0000                 0.0000                 0.0000
 Depolar     --     0.0000                 0.0000                 0.0000
 Atom AN      X      Y      Z        X      Y      Z        X      Y      Z
   1   1     0.02   0.00  -0.01     0.00  -0.00   0.00     0.00  -0.00   0.00
   2   8     0.19   0.04  -0.14    -0.00   0.00  -0.00     0.00   0.00  -0.00
   3   1    -0.78  -0.15   0.55     0.00   0.00   0.00    -0.01  -0.00   0.00
   4   1    -0.01   0.01   0.00     0.00  -0.01  -0.00     0.00  -0.00  -0.00
   5   8    -0.00  -0.00  -0.00    -0.00   0.00  -0.00    -0.00   0.00   0.00
   6   1     0.02   0.00   0.01     0.01   0.00   0.01     0.00   0.00   0.00
   7   1     0.00   0.00  -0.00     0.00   0.00  -0.00     0.00   0.00  -0.00
   8   8    -0.00  -0.00  -0.00     0.00  -0.01   0.00    -0.00   0.00  -0.00
   9   1     0.00  -0.00   0.00    -0.02   0.02  -0.01     0.00  -0.00   0.00
  10   1    -0.00  -0.00  -0.00    -0.04  -0.03  -0.04     0.00   0.00   0.00
  11   8     0.00   0.00   0.00     0.04   0.05  -0.03    -0.00  -0.00  -0.00
  12   1     0.00   0.00   0.00    -0.12  -0.15   0.15    -0.00  -0.00  -0.00
  13   1     0.00   0.00  -0.00     0.10   0.12   0.00     0.00   0.00  -0.00
  14   8    -0.00  -0.00  -0.00    -0.11   0.19  -0.00    -0.00   0.01  -0.00
  15   1    -0.00   0.00   0.00     0.33  -0.86   0.01     0.01  -0.03   0.00
  16   1    -0.00  -0.00   0.00    -0.02  -0.02   0.02     0.00   0.00  -0.00
  17   8    -0.00  -0.00  -0.00     0.00   0.00  -0.01     0.00   0.00   0.00
  18   1     0.00   0.00   0.00     0.00   0.00   0.00    -0.00  -0.00  -0.00
  19   1    -0.00   0.00   0.00    -0.03   0.02   0.07     0.02  -0.05  -0.12
  20   8     0.00   0.00   0.00     0.01  -0.00  -0.02    -0.18  -0.10  -0.10
  21   1    -0.00  -0.00  -0.00    -0.01  -0.01  -0.01     0.70   0.43   0.50
  22   1    -0.00  -0.00  -0.00     0.00   0.00   0.01     0.00   0.00   0.00
  23   8     0.00  -0.00   0.00    -0.00   0.00  -0.00    -0.00  -0.00  -0.00
  24   1    -0.00   0.00   0.00     0.00  -0.00  -0.00    -0.00   0.00   0.00
