
                                 *****************
                                 * O   R   C   A *
                                 *****************

                                            #,                                       
                                            ###                                      
                                            ####                                     
                                            #####                                    
                                            ######                                   
                                           ########,                                 
                                     ,,################,,,,,                         
                               ,,#################################,,                 
                          ,,##########################################,,             
                       ,#########################################, ''#####,          
                    ,#############################################,,   '####,        
                  ,##################################################,,,,####,       
                ,###########''''           ''''###############################       
              ,#####''   ,,,,##########,,,,          '''####'''          '####       
            ,##' ,,,,###########################,,,                        '##       
           ' ,,###''''                  '''############,,,                           
         ,,##''                                '''############,,,,        ,,,,,,###''
      ,#''                                            '''#######################'''  
     '                                                          ''''####''''         
             ,#######,   #######,   ,#######,      ##                                
            ,#'     '#,  ##    ##  ,#'     '#,    #''#        ######   ,####,        
            ##       ##  ##   ,#'  ##            #'  '#       #        #'  '#        
            ##       ##  #######   ##           ,######,      #####,   #    #        
            '#,     ,#'  ##    ##  '#,     ,#' ,#      #,         ##   #,  ,#        
             '#######'   ##     ##  '#######'  #'      '#     #####' # '####'        



                  #######################################################
                  #                        -***-                        #
                  #          Department of theory and spectroscopy      #
                  #    Directorship and core code : Frank Neese         #
                  #        Max Planck Institute fuer Kohlenforschung    #
                  #                Kaiser Wilhelm Platz 1               #
                  #                 D-45470 Muelheim/Ruhr               #
                  #                      Germany                        #
                  #                                                     #
                  #                  All rights reserved                #
                  #                        -***-                        #
                  #######################################################


                         Program Version 5.0.2 -  RELEASE  -


 With contributions from (in alphabetic order):
   Daniel Aravena         : Magnetic Suceptibility
   Michael Atanasov       : Ab Initio Ligand Field Theory (pilot matlab implementation)
   Alexander A. Auer      : GIAO ZORA, VPT2 properties, NMR spectrum
   Ute Becker             : Parallelization
   Giovanni Bistoni       : ED, misc. LED, open-shell LED, HFLD
   Martin Brehm           : Molecular dynamics
   Dmytro Bykov           : SCF Hessian
   Vijay G. Chilkuri      : MRCI spin determinant printing, contributions to CSF-ICE
   Dipayan Datta          : RHF DLPNO-CCSD density
   Achintya Kumar Dutta   : EOM-CC, STEOM-CC
   Dmitry Ganyushin       : Spin-Orbit,Spin-Spin,Magnetic field MRCI
   Miquel Garcia          : C-PCM and meta-GGA Hessian, CC/C-PCM, Gaussian charge scheme
   Yang Guo               : DLPNO-NEVPT2, F12-NEVPT2, CIM, IAO-localization
   Andreas Hansen         : Spin unrestricted coupled pair/coupled cluster methods
   Benjamin Helmich-Paris : MC-RPA, TRAH-SCF, COSX integrals
   Lee Huntington         : MR-EOM, pCC
   Robert Izsak           : Overlap fitted RIJCOSX, COSX-SCS-MP3, EOM
   Marcus Kettner         : VPT2
   Christian Kollmar      : KDIIS, OOCD, Brueckner-CCSD(T), CCSD density, CASPT2, CASPT2-K
   Simone Kossmann        : Meta GGA functionals, TD-DFT gradient, OOMP2, MP2 Hessian
   Martin Krupicka        : Initial AUTO-CI
   Lucas Lang             : DCDCAS
   Marvin Lechner         : AUTO-CI (C++ implementation), FIC-MRCC
   Dagmar Lenk            : GEPOL surface, SMD
   Dimitrios Liakos       : Extrapolation schemes; Compound Job, initial MDCI parallelization
   Dimitrios Manganas     : Further ROCIS development; embedding schemes
   Dimitrios Pantazis     : SARC Basis sets
   Anastasios Papadopoulos: AUTO-CI, single reference methods and gradients
   Taras Petrenko         : DFT Hessian,TD-DFT gradient, ASA, ECA, R-Raman, ABS, FL, XAS/XES, NRVS
   Peter Pinski           : DLPNO-MP2, DLPNO-MP2 Gradient
   Christoph Reimann      : Effective Core Potentials
   Marius Retegan         : Local ZFS, SOC
   Christoph Riplinger    : Optimizer, TS searches, QM/MM, DLPNO-CCSD(T), (RO)-DLPNO pert. Triples
   Tobias Risthaus        : Range-separated hybrids, TD-DFT gradient, RPA, STAB
   Michael Roemelt        : Original ROCIS implementation
   Masaaki Saitow         : Open-shell DLPNO-CCSD energy and density
   Barbara Sandhoefer     : DKH picture change effects
   Avijit Sen             : IP-ROCIS
   Kantharuban Sivalingam : CASSCF convergence, NEVPT2, FIC-MRCI
   Bernardo de Souza      : ESD, SOC TD-DFT
   Georgi Stoychev        : AutoAux, RI-MP2 NMR, DLPNO-MP2 response
   Willem Van den Heuvel  : Paramagnetic NMR
   Boris Wezisla          : Elementary symmetry handling
   Frank Wennmohs         : Technical directorship


 We gratefully acknowledge several colleagues who have allowed us to
 interface, adapt or use parts of their codes:
   Stefan Grimme, W. Hujo, H. Kruse, P. Pracht,  : VdW corrections, initial TS optimization,
                  C. Bannwarth, S. Ehlert          DFT functionals, gCP, sTDA/sTD-DF
   Ed Valeev, F. Pavosevic, A. Kumar             : LibInt (2-el integral package), F12 methods
   Garnet Chan, S. Sharma, J. Yang, R. Olivares  : DMRG
   Ulf Ekstrom                                   : XCFun DFT Library
   Mihaly Kallay                                 : mrcc  (arbitrary order and MRCC methods)
   Jiri Pittner, Ondrej Demel                    : Mk-CCSD
   Frank Weinhold                                : gennbo (NPA and NBO analysis)
   Christopher J. Cramer and Donald G. Truhlar   : smd solvation model
   Lars Goerigk                                  : TD-DFT with DH, B97 family of functionals
   V. Asgeirsson, H. Jonsson                     : NEB implementation
   FAccTs GmbH                                   : IRC, NEB, NEB-TS, DLPNO-Multilevel, CI-OPT
                                                   MM, QMMM, 2- and 3-layer-ONIOM, Crystal-QMMM,
                                                   LR-CPCM, SF, NACMEs, symmetry and pop. for TD-DFT,
                                                   nearIR, NL-DFT gradient (VV10), updates on ESD,
                                                   ML-optimized integration grids
   S Lehtola, MJT Oliveira, MAL Marques          : LibXC Library
   Liviu Ungur et al                             : ANISO software


 Your calculation uses the libint2 library for the computation of 2-el integrals
 For citations please refer to: http://libint.valeyev.net

 Your ORCA version has been built with support for libXC version: 5.1.0
 For citations please refer to: https://tddft.org/programs/libxc/

 This ORCA versions uses:
   CBLAS   interface :  Fast vector & matrix operations
   LAPACKE interface :  Fast linear algebra routines
   SCALAPACK package :  Parallel linear algebra routines
   Shared memory     :  Shared parallel matrices
   BLAS/LAPACK       :  OpenBLAS 0.3.15  USE64BITINT DYNAMIC_ARCH NO_AFFINITY Haswell SINGLE_THREADED
        Core in use  :  Haswell
   Copyright (c) 2011-2014, The OpenBLAS Project




***************************************
The coordinates will be read from file: opt_full.xyz
***************************************


Your calculation utilizes the semiempirical GFN2-xTB method
Please cite in your paper:
C. Bannwarth, Ehlert S., S. Grimme,  J. Chem. Theory Comput., 15, (2019), 1652.
   

Preparing ONIOM calculation             ...         done
================================================================================

================================================================================
                                        WARNINGS
                       Please study these warnings very carefully!
================================================================================

WARNING: Gradients needed for Numerical Frequencies
  ===> : Setting RunTyp to EnGrad

WARNING: Found dipole moment calculation with XTB calculation
  ===> : Switching off dipole moment calculation


WARNING: TRAH-SCF for XTB is not implemented!
  ===> : Turning TRAH off!

================================================================================
                                       INPUT FILE
================================================================================
NAME = oniom.inp
|  1> !QM/XTB2 XTB2
|  2> !NumFreq
|  3> %pal
|  4> nprocs 28
|  5> end
|  6> %qmmm
|  7> QMAtoms {18 19 20 45 46 47 54 55 56 72 73 74 75 76 77 108 109 110 117 118 119 132 133 134 135 136 137 138 139 140 165 166 167 177 178 179 249 250 251 264 265 266 285 286 287 321 322 323 324 325 326 363 364 365 390 391 392 408 409 410 471 472 473 474 475 476 504 505 506 567 568 569 582 583 584 600 601 602 } end 
|  8> ActiveAtoms {18 19 20 45 46 47 54 55 56 72 73 74 75 76 77 108 109 110 117 118 119 132 133 134 135 136 137 138 139 140 165 166 167 177 178 179 249 250 251 264 265 266 285 286 287 321 322 323 324 325 326 363 364 365 390 391 392 408 409 410 471 472 473 474 475 476 504 505 506 567 568 569 582 583 584 600 601 602 } end
|  9> ExtendActiveRegion no
| 10> end
| 11> *xyzfile 0 1 opt_full.xyz 
| 12> 
| 13> 
| 14>                          ****END OF INPUT****
================================================================================

------------------------------------------------------------------------------

                             **************************
                             *    2-layered ONIOM     *
                             **************************


------------------------------------------------------------------------------




Multiscale model                       ... QM1/QM2
QM2 method                             ... XTB2
Coupling Scheme                        ... subtractive
Embedding Scheme                       ... electrostatic
PrintLevel                             ... 1
Method for determining QM2 charges     ... Hirshfeld
Charge of total system                 ... 0
Charge alteration scheme               ... Charge shifting
Scaling factor for CS scheme           ... 0.06
Gradient projection scheme             ... Lever rule
Scaling factor for QM2 charges         ... 1.00
AutoFF method                          ... XTB2
AutoFF boundary                        ... no covalent bonds
Point charges in QM calc. from MM atoms... 525
              from charge shift scheme ... 0
Printing trajectories, xyz and allxyz files:
        QMMMRegion                     ... YES
        activeRegion                   ... YES
        activeRegionExt                ... NO
        qmRegion                       ... YES
        qm2Region                      ... NO
Parameter files:
        ORCA Forcefield Filename       ... oniom_L_QM2.ORCAFF.prms.tmp
        QM-LA bond distances Filename  ... oniom.H_DIST.prms.tmp
Forcefield type                        ... ORCA
Size of different subsystems (in atoms):
Size of QMMM System                    ... 603
Size of QM2 Subsystem                  ... 525
Size of QM1 Subsystem                  ... 78
Number of link atoms                   ... 0
Size of QM1 Subsystem plus link atoms  ... 78
Size of region for optimizer           ... 78
        optimized atoms = activeRegion ... 78
        fixed atoms (none)             ... 0
Composition of different systems (atoms start counting at 0):
QM1 Subsystem                          ...  18  19  20  45  46  47  54  55  56  72 
                                            73  74  75  76  77 108 109 110 117 118 
                                           119 132 133 134 135 136 137 138 139 140 
                                           165 166 167 177 178 179 249 250 251 264 
                                           265 266 285 286 287 321 322 323 324 325 
                                           326 363 364 365 390 391 392 408 409 410 
                                           471 472 473 474 475 476 504 505 506 567 
                                           568 569 582 583 584 600 601 602 
Active atoms                           ...  18  19  20  45  46  47  54  55  56  72 
                                            73  74  75  76  77 108 109 110 117 118 
                                           119 132 133 134 135 136 137 138 139 140 
                                           165 166 167 177 178 179 249 250 251 264 
                                           265 266 285 286 287 321 322 323 324 325 
                                           326 363 364 365 390 391 392 408 409 410 
                                           471 472 473 474 475 476 504 505 506 567 
                                           568 569 582 583 584 600 601 602 

                     *******************************
                     * Energy+Gradient Calculation *
                     *******************************

                    ************************************                      
                    *       QM/   XTB2 SP Energy       *                      
                    ************************************                      


------------------------------------------------------------------------------
                          XTB2 - FULL SYSTEM                         
------------------------------------------------------------------------------
Running XTB calculation
---------------------------------   --------------------
FINAL SINGLE POINT ENERGY (L-QM2)    -1023.447125451120
---------------------------------   --------------------
------------------------------------------------------------------------------
                                  XTB2 - SMALL SYSTEM                         
------------------------------------------------------------------------------
Running XTB calculation
---------------------------------   --------------------
FINAL SINGLE POINT ENERGY (S-QM2)     -132.393015634960
---------------------------------   --------------------
------------------------------------------------------------------------------
                                QM - SMALL SYSTEM                           
------------------------------------------------------------------------------
      -----------------------------------------------------------      
     |                   =====================                   |     
     |                           x T B                           |     
     |                   =====================                   |     
     |                         S. Grimme                         |     
     |          Mulliken Center for Theoretical Chemistry        |     
     |                    University of Bonn                     |     
      -----------------------------------------------------------      

   * xtb version 6.4.0 (d4b70c2) compiled by 'ehlert@majestix' on 2021-02-01

   xtb is free software: you can redistribute it and/or modify it under
   the terms of the GNU Lesser General Public License as published by
   the Free Software Foundation, either version 3 of the License, or
   (at your option) any later version.
   
   xtb is distributed in the hope that it will be useful,
   but WITHOUT ANY WARRANTY; without even the implied warranty of
   MERCHANTABILITY or FITNESS FOR A PARTICULAR PURPOSE.  See the
   GNU Lesser General Public License for more details.
   
   Cite this work as:
   * C. Bannwarth, E. Caldeweyher, S. Ehlert, A. Hansen, P. Pracht,
     J. Seibert, S. Spicher, S. Grimme, WIREs Comput. Mol. Sci., 2020,
     e01493. DOI: 10.1002/wcms.1493
   
   for GFN2-xTB:
   * C. Bannwarth, S. Ehlert and S. Grimme., J. Chem. Theory Comput., 2019,
     15, 1652-1671. DOI: 10.1021/acs.jctc.8b01176
   for GFN1-xTB:
   * S. Grimme, C. Bannwarth, P. Shushkov, J. Chem. Theory Comput., 2017,
     13, 1989-2009. DOI: 10.1021/acs.jctc.7b00118
   for GFN0-xTB:
   * P. Pracht, E. Caldeweyher, S. Ehlert, S. Grimme, ChemRxiv, 2019, preprint.
     DOI: 10.26434/chemrxiv.8326202.v1
   for GFN-FF:
   * S. Spicher and S. Grimme, Angew. Chem. Int. Ed., 2020, 59, 15665-15673.
     DOI: 10.1002/anie.202004239
   
   for DFT-D4:
   * E. Caldeweyher, C. Bannwarth and S. Grimme, J. Chem. Phys., 2017,
     147, 034112. DOI: 10.1063/1.4993215
   * E. Caldeweyher, S. Ehlert, A. Hansen, H. Neugebauer, S. Spicher,
     C. Bannwarth and S. Grimme, J. Chem. Phys., 2019, 150, 154122.
     DOI: 10.1063/1.5090222
   * E. Caldeweyher, J.-M. Mewes, S. Ehlert and S. Grimme, Phys. Chem. Chem. Phys.
     2020, 22, 8499-8512. DOI: 10.1039/D0CP00502A
   
   for sTDA-xTB:
   * S. Grimme and C. Bannwarth, J. Chem. Phys., 2016, 145, 054103.
     DOI: 10.1063/1.4959605
   
   in the mass-spec context:
   * V. Asgeirsson, C. Bauer and S. Grimme, Chem. Sci., 2017, 8, 4879.
     DOI: 10.1039/c7sc00601b
   * J. Koopman and S. Grimme, ACS Omega 2019, 4, 12, 15120-15133.
     DOI: 10.1021/acsomega.9b02011
   
   for metadynamics refer to:
   * S. Grimme, J. Chem. Theory Comput., 2019, 155, 2847-2862
     DOI: 10.1021/acs.jctc.9b00143
   
   with help from (in alphabetical order)
   P. Atkinson, C. Bannwarth, F. Bohle, G. Brandenburg, E. Caldeweyher
   M. Checinski, S. Dohm, S. Ehlert, S. Ehrlich, I. Gerasimov, J. Koopman
   C. Lavinge, S. Lehtola, F. März, M. Müller, F. Musil, H. Neugebauer
   J. Pisarek, P. Pracht, J. Seibert, P. Shushkov, S. Spicher, M. Stahn
   T. Strunk, J. Stückrath, T. Rose, and J. Unsleber
   
 * started run on 2022/04/11 at 10:14:15.460     

           -------------------------------------------------
          |                Calculation Setup                |
           -------------------------------------------------

          program call               : /work/spantaleone/apps/orca/ORCA_5.0.2/otool_xtb oniom_XTB.xyz --grad -c 0 -u 0 -P 28 --namespace oniom --input oniom_XTB.input.tmp --acc 1.000000
          hostname                   : n3768
          calculation namespace      : oniom
          coordinate file            : oniom_XTB.xyz
          omp threads                :                    28
          number of atoms            :                    78
          number of electrons        :                   208
          charge                     :                     0
          spin                       :                   0.0
          first test random number   :      0.58341620983108

   ID    Z sym.   atoms
    1    1 H      1, 3, 4, 6, 7, 9, 10, 12, 13, 15, 16, 18, 19, 21, 22, 24,
                  25, 27, 28, 30, 31, 33, 34, 36, 37, 39, 40, 42, 43, 45, 46,
                  48, 49, 51, 52, 54, 55, 57, 58, 60, 61, 63, 64, 66, 67, 69,
                  70, 72, 73, 75, 77, 78
    2    8 O      2, 5, 8, 11, 14, 17, 20, 23, 26, 29, 32, 35, 38, 41, 44,
                  47, 50, 53, 56, 59, 62, 65, 68, 71, 74, 76

molecular fragmentation (1/2 indicates fragments):
111222222222222222222222222222222222222222222222222222222222222222222222
222222
# atoms in fragment 1/2:     3    75
 fragment masses (1/2) :       18.02      450.38
CMA distance (Bohr)    :   8.838
constraining FC (au)   :  0.0500
########################################################################
[WARNING] Please study the warnings concerning your input carefully
-1- prog_main_parseArguments: Process number higher than OMP_NUM_THREADS, I hope you know what you are doing.
########################################################################

           -------------------------------------------------
          |                 G F N 2 - x T B                 |
           -------------------------------------------------

        Reference                      10.1021/acs.jctc.8b01176
      * Hamiltonian:
        H0-scaling (s, p, d)           1.850000    2.230000    2.230000
        zeta-weighting                 0.500000
      * Dispersion:
        s8                             2.700000
        a1                             0.520000
        a2                             5.000000
        s9                             5.000000
      * Repulsion:
        kExp                           1.500000    1.000000
        rExp                           1.000000
      * Coulomb:
        alpha                          2.000000
        third order                    shell-resolved
        anisotropic                    true
        a3                             3.000000
        a5                             4.000000
        cn-shift                       1.200000
        cn-exp                         4.000000
        max-rad                        5.000000


          ...................................................
          :                      SETUP                      :
          :.................................................:
          :  # basis functions                 156          :
          :  # atomic orbitals                 156          :
          :  # shells                          104          :
          :  # electrons                       208          :
          :  max. iterations                   250          :
          :  Hamiltonian                  GFN2-xTB          :
          :  restarted?                      false          :
          :  GBSA solvation                  false          :
          :  PC potential                     true          :
          :  -> # point charges                525          :
          :  -> sum of PC               -0.0000008     e    :
          :  electronic temp.          300.0000000     K    :
          :  accuracy                    1.0000000          :
          :  -> integral cutoff          0.2500000E+02      :
          :  -> integral neglect         0.1000000E-07      :
          :  -> SCF convergence          0.1000000E-05 Eh   :
          :  -> wf. convergence          0.1000000E-03 e    :
          :  Broyden damping             0.4000000          :
          ...................................................

 iter      E             dE          RMSdq      gap      omega  full diag
   1   -133.1290736 -0.133129E+03  0.417E+00    9.57       0.0  T
   2   -133.1619033 -0.328297E-01  0.241E+00   10.01       1.0  T
   3   -133.1684816 -0.657831E-02  0.362E-01    9.36       1.0  T
   4   -133.1700450 -0.156334E-02  0.845E-02    9.55       1.0  T
   5   -133.1701595 -0.114545E-03  0.363E-02    9.51       1.0  T
   6   -133.1701726 -0.130693E-04  0.527E-03    9.53       2.2  T
   7   -133.1701729 -0.355329E-06  0.115E-03    9.53       9.8  T
   8   -133.1701730 -0.299693E-08  0.762E-04    9.53      14.9  T
   9   -133.1701730 -0.863520E-08  0.783E-05    9.53     144.6  T

   *** convergence criteria satisfied after 9 iterations ***

         #    Occupation            Energy/Eh            Energy/eV
      -------------------------------------------------------------
         1        2.0000           -0.7122477             -19.3812
       ...           ...                  ...                  ...
        98        2.0000           -0.4447061             -12.1011
        99        2.0000           -0.4435042             -12.0684
       100        2.0000           -0.4431752             -12.0594
       101        2.0000           -0.4405097             -11.9869
       102        2.0000           -0.4378185             -11.9136
       103        2.0000           -0.4298372             -11.6965
       104        2.0000           -0.4269890             -11.6190 (HOMO)
       105                         -0.0768130              -2.0902 (LUMO)
       106                         -0.0325872              -0.8867
       107                         -0.0243096              -0.6615
       108                         -0.0141302              -0.3845
       109                          0.0028888               0.0786
       ...                                ...                  ...
       156                          0.3643317               9.9140
      -------------------------------------------------------------
                  HL-Gap            0.3501760 Eh            9.5288 eV
             Fermi-level           -0.2519010 Eh           -6.8546 eV

 SCC (total)                   0 d,  0 h,  0 min,  0.077 sec
 SCC setup                      ...        0 min,  0.001 sec (  1.079%)
 Dispersion                     ...        0 min,  0.001 sec (  1.563%)
 classical contributions        ...        0 min,  0.000 sec (  0.131%)
 integral evaluation            ...        0 min,  0.015 sec ( 19.756%)
 iterations                     ...        0 min,  0.046 sec ( 59.891%)
 molecular gradient             ...        0 min,  0.013 sec ( 16.676%)
 printout                       ...        0 min,  0.000 sec (  0.618%)

         :::::::::::::::::::::::::::::::::::::::::::::::::::::
         ::                     SUMMARY                     ::
         :::::::::::::::::::::::::::::::::::::::::::::::::::::
         :: total energy            -132.393015634964 Eh    ::
         :: gradient norm              0.078169248232 Eh/a0 ::
         :: HOMO-LUMO gap              9.528773657369 eV    ::
         ::.................................................::
         :: SCC energy              -133.170172961464 Eh    ::
         :: -> isotropic ES            0.897068539472 Eh    ::
         :: -> anisotropic ES         -0.119088865913 Eh    ::
         :: -> anisotropic XC         -0.011948173097 Eh    ::
         :: -> dispersion             -0.047607123938 Eh    ::
         :: repulsion energy           0.773942496551 Eh    ::
         :: add. restraining           0.000000000000 Eh    ::
         :: total charge               0.000000000000 e     ::
         :::::::::::::::::::::::::::::::::::::::::::::::::::::


Property printout bound to 'properties.out'

           -------------------------------------------------
          | TOTAL ENERGY             -132.393015634964 Eh   |
          | GRADIENT NORM               0.078169248232 Eh/α |
          | HOMO-LUMO GAP               9.528773657369 eV   |
           -------------------------------------------------

------------------------------------------------------------------------
 * finished run on 2022/04/11 at 10:14:15.626     
------------------------------------------------------------------------
 total:
 * wall-time:     0 d,  0 h,  0 min,  0.167 sec
 *  cpu-time:     0 d,  0 h,  0 min,  4.203 sec
 * ratio c/w:    25.198 speedup
 SCF:
 * wall-time:     0 d,  0 h,  0 min,  0.083 sec
 *  cpu-time:     0 d,  0 h,  0 min,  2.289 sec
 * ratio c/w:    27.582 speedup


-------------------------   --------------------
FINAL SINGLE POINT ENERGY      -132.393015634960
-------------------------   --------------------



--------------------------------------   --------------------
FINAL SINGLE POINT ENERGY (QM/QM2)    -1023.447125451120
--------------------------------------   --------------------

                    ************************************                      
                    *QM/   XTB2 SP Gradient Calculation*                      
                    ************************************                      


------------------------------------------------------------------------------
                          XTB2 - FULL SYSTEM                         
------------------------------------------------------------------------------
Reading gradient                        ...         done
------------------------------------------------------------------------------
                                  XTB2 - SMALL SYSTEM                         
------------------------------------------------------------------------------
Reading gradient                        ...         done
------------------------------------------------------------------------------
                                     QM                                       
------------------------------------------------------------------------------


------------------
CARTESIAN GRADIENT (QM/MM)
------------------
   1   H   :   -0.000000088    0.000001924    0.000000642
   2   O   :    0.000000766   -0.000000343    0.000000419
   3   H   :   -0.000000433    0.000000331    0.000000303
   4   H   :    0.000002014    0.000001411   -0.000005040
   5   O   :    0.000002419    0.000000774   -0.000000963
   6   H   :   -0.000000469    0.000001685   -0.000001549
   7   H   :    0.000000312   -0.000002205   -0.000005461
   8   O   :   -0.000004332    0.000000030   -0.000001794
   9   H   :    0.000000433   -0.000000668   -0.000002512
  10   H   :   -0.000001443    0.000000650    0.000004210
  11   O   :   -0.000001475    0.000002047    0.000001773
  12   H   :   -0.000001424    0.000000271   -0.000001042
  13   H   :    0.000002565   -0.000005625    0.000003277
  14   O   :    0.000002928   -0.000002860   -0.000001393
  15   H   :    0.000001029    0.000000378    0.000000550
  16   H   :    0.000001854    0.000003122    0.000000884
  17   O   :   -0.000001722   -0.000005163    0.000002205
  18   H   :    0.000002517   -0.000000607    0.000002433
  19   H   :   -0.000002959    0.000004684   -0.000000920
  20   O   :    0.000002833    0.000003908   -0.000003985
  21   H   :    0.000001834   -0.000000267    0.000006670
  22   H   :    0.000002988    0.000000422    0.000003691
  23   O   :    0.000004109   -0.000001577   -0.000000689
  24   H   :    0.000002819   -0.000001833   -0.000007779
  25   H   :   -0.000003408    0.000002218   -0.000001504
  26   O   :    0.000001852   -0.000002086    0.000000976
  27   H   :    0.000002045    0.000000561    0.000001325
  28   H   :   -0.000004653   -0.000001439   -0.000000246
  29   O   :    0.000006145   -0.000002433   -0.000001593
  30   H   :   -0.000003122    0.000003952   -0.000000471
  31   H   :   -0.000001525   -0.000001593   -0.000006747
  32   O   :   -0.000005095   -0.000003382    0.000002371
  33   H   :   -0.000005895    0.000003893   -0.000001399
  34   H   :    0.000002943   -0.000000895   -0.000000341
  35   O   :    0.000003925   -0.000002309    0.000003307
  36   H   :   -0.000006798   -0.000000979   -0.000000918
  37   H   :    0.000000908    0.000000630   -0.000001590
  38   O   :    0.000001748    0.000000171   -0.000001263
  39   H   :   -0.000001199   -0.000003980    0.000002597
  40   H   :    0.000004569    0.000006158    0.000000152
  41   O   :    0.000004898   -0.000001552   -0.000003594
  42   H   :    0.000001868   -0.000001934   -0.000005604
  43   H   :   -0.000002478   -0.000002651   -0.000006806
  44   O   :    0.000000601   -0.000005741   -0.000002590
  45   H   :   -0.000000784   -0.000002664   -0.000001515
  46   H   :   -0.000004891    0.000000247   -0.000000650
  47   O   :   -0.000000087    0.000000732    0.000000186
  48   H   :    0.000001288    0.000002477   -0.000001918
  49   H   :   -0.000001245   -0.000001582   -0.000000676
  50   O   :   -0.000002783    0.000000528    0.000001306
  51   H   :   -0.000002002    0.000004163    0.000002154
  52   H   :   -0.000001524    0.000002107   -0.000001571
  53   O   :   -0.000005993   -0.000003122    0.000000629
  54   H   :   -0.000003934    0.000000985   -0.000002898
  55   H   :   -0.000002658    0.000000023   -0.000002059
  56   O   :   -0.000001482   -0.000002499   -0.000000446
  57   H   :    0.000000121   -0.000002780   -0.000003679
  58   H   :   -0.000003530   -0.000002105    0.000002429
  59   O   :   -0.000001939   -0.000002126    0.000001650
  60   H   :   -0.000002524    0.000000853    0.000001069
  61   H   :    0.000005033    0.000000558   -0.000001970
  62   O   :    0.000000961   -0.000004241   -0.000000844
  63   H   :   -0.000004722   -0.000000202    0.000000633
  64   H   :    0.000002265   -0.000003235    0.000000276
  65   O   :    0.000005757   -0.000006761   -0.000005585
  66   H   :    0.000000455   -0.000003836   -0.000001703
  67   H   :   -0.000001624   -0.000000419   -0.000004461
  68   O   :   -0.000000619    0.000003861   -0.000001773
  69   H   :    0.000000988   -0.000004033   -0.000004061
  70   H   :   -0.000003873    0.000000753   -0.000004925
  71   O   :   -0.000000930   -0.000003563    0.000000503
  72   H   :    0.000002424   -0.000003844   -0.000000428
  73   H   :   -0.000004394   -0.000001681    0.000003783
  74   O   :   -0.000001087    0.000004336   -0.000000939
  75   H   :    0.000002874    0.000003773   -0.000003193
  76   O   :   -0.000000161   -0.000001465   -0.000004660
  77   H   :   -0.000006768    0.000003452   -0.000004570
  78   H   :   -0.000000278    0.000001486   -0.000003358

Norm of the cartesian gradient     ...    0.000044308
RMS gradient                       ...    0.000002896
MAX gradient                       ...    0.000007779

----------------------------------------------------------------------------
                           ORCA NUMERICAL FREQUENCIES
                              (28-process run)
----------------------------------------------------------------------------

Number of atoms                ... 78
Central differences            ... used
Number of displacements        ... 468
Numerical increment            ... 5.000e-03 bohr
IR-spectrum generation         ... on
Raman-spectrum generation      ... off
Surface Crossing Hessian       ... off

The output will be reduced. Please look at the following files:
SCF program output             ... >oniom.lastscf
Integral program output        ... >oniom.lastint
Gradient program output        ... >oniom.lastgrad
Dipole moment program output   ... >oniom.lastmom
AutoCI program output          ... >oniom.lastautoci

List of participating nodes    ...  oniom.hostnames
	<< Calculating on displaced geometry   2 (of 468) >>
	<< Calculating on displaced geometry  12 (of 468) >>
	<< Calculating on displaced geometry  28 (of 468) >>
	<< Calculating on displaced geometry   9 (of 468) >>
	<< Calculating on displaced geometry   6 (of 468) >>
	<< Calculating on displaced geometry  19 (of 468) >>
	<< Calculating on displaced geometry   3 (of 468) >>
	<< Calculating on displaced geometry   4 (of 468) >>
	<< Calculating on displaced geometry  22 (of 468) >>
	<< Calculating on displaced geometry  21 (of 468) >>
	<< Calculating on displaced geometry  18 (of 468) >>
	<< Calculating on displaced geometry  20 (of 468) >>
	<< Calculating on displaced geometry   8 (of 468) >>
	<< Calculating on displaced geometry  10 (of 468) >>
	<< Calculating on displaced geometry  25 (of 468) >>
	<< Calculating on displaced geometry  16 (of 468) >>
	<< Calculating on displaced geometry   5 (of 468) >>
	<< Calculating on displaced geometry  24 (of 468) >>
	<< Calculating on displaced geometry  11 (of 468) >>
	<< Calculating on displaced geometry  27 (of 468) >>
	<< Calculating on displaced geometry  14 (of 468) >>
	<< Calculating on displaced geometry   7 (of 468) >>
	<< Calculating on displaced geometry  26 (of 468) >>
	<< Calculating on displaced geometry  23 (of 468) >>
	<< Calculating on displaced geometry  17 (of 468) >>
	<< Calculating on displaced geometry   1 (of 468) >>
	<< Calculating on displaced geometry  13 (of 468) >>
	<< Calculating on displaced geometry  15 (of 468) >>
	<< Calculating on displaced geometry  29 (of 468) >>
	<< Calculating on displaced geometry  30 (of 468) >>
	<< Calculating on displaced geometry  31 (of 468) >>
	<< Calculating on displaced geometry  32 (of 468) >>
	<< Calculating on displaced geometry  33 (of 468) >>
	<< Calculating on displaced geometry  34 (of 468) >>
	<< Calculating on displaced geometry  35 (of 468) >>
	<< Calculating on displaced geometry  36 (of 468) >>
	<< Calculating on displaced geometry  37 (of 468) >>
	<< Calculating on displaced geometry  43 (of 468) >>
	<< Calculating on displaced geometry  39 (of 468) >>
	<< Calculating on displaced geometry  38 (of 468) >>
	<< Calculating on displaced geometry  41 (of 468) >>
	<< Calculating on displaced geometry  44 (of 468) >>
	<< Calculating on displaced geometry  40 (of 468) >>
	<< Calculating on displaced geometry  42 (of 468) >>
	<< Calculating on displaced geometry  45 (of 468) >>
	<< Calculating on displaced geometry  47 (of 468) >>
	<< Calculating on displaced geometry  46 (of 468) >>
	<< Calculating on displaced geometry  48 (of 468) >>
	<< Calculating on displaced geometry  50 (of 468) >>
	<< Calculating on displaced geometry  52 (of 468) >>
	<< Calculating on displaced geometry  49 (of 468) >>
	<< Calculating on displaced geometry  51 (of 468) >>
	<< Calculating on displaced geometry  53 (of 468) >>
	<< Calculating on displaced geometry  54 (of 468) >>
	<< Calculating on displaced geometry  56 (of 468) >>
	<< Calculating on displaced geometry  55 (of 468) >>
	<< Calculating on displaced geometry  58 (of 468) >>
	<< Calculating on displaced geometry  57 (of 468) >>
	<< Calculating on displaced geometry  59 (of 468) >>
	<< Calculating on displaced geometry  60 (of 468) >>
	<< Calculating on displaced geometry  61 (of 468) >>
	<< Calculating on displaced geometry  62 (of 468) >>
	<< Calculating on displaced geometry  63 (of 468) >>
	<< Calculating on displaced geometry  64 (of 468) >>
	<< Calculating on displaced geometry  65 (of 468) >>
	<< Calculating on displaced geometry  66 (of 468) >>
	<< Calculating on displaced geometry  67 (of 468) >>
	<< Calculating on displaced geometry  68 (of 468) >>
	<< Calculating on displaced geometry  69 (of 468) >>
	<< Calculating on displaced geometry  73 (of 468) >>
	<< Calculating on displaced geometry  75 (of 468) >>
	<< Calculating on displaced geometry  78 (of 468) >>
	<< Calculating on displaced geometry  79 (of 468) >>
	<< Calculating on displaced geometry  71 (of 468) >>
	<< Calculating on displaced geometry  72 (of 468) >>
	<< Calculating on displaced geometry  76 (of 468) >>
	<< Calculating on displaced geometry  70 (of 468) >>
	<< Calculating on displaced geometry  77 (of 468) >>
	<< Calculating on displaced geometry  74 (of 468) >>
	<< Calculating on displaced geometry  84 (of 468) >>
	<< Calculating on displaced geometry  80 (of 468) >>
	<< Calculating on displaced geometry  81 (of 468) >>
	<< Calculating on displaced geometry  82 (of 468) >>
	<< Calculating on displaced geometry  83 (of 468) >>
	<< Calculating on displaced geometry  85 (of 468) >>
	<< Calculating on displaced geometry  86 (of 468) >>
	<< Calculating on displaced geometry  87 (of 468) >>
	<< Calculating on displaced geometry  88 (of 468) >>
	<< Calculating on displaced geometry  89 (of 468) >>
	<< Calculating on displaced geometry  90 (of 468) >>
	<< Calculating on displaced geometry  91 (of 468) >>
	<< Calculating on displaced geometry  92 (of 468) >>
	<< Calculating on displaced geometry  93 (of 468) >>
	<< Calculating on displaced geometry  94 (of 468) >>
	<< Calculating on displaced geometry  95 (of 468) >>
	<< Calculating on displaced geometry  96 (of 468) >>
	<< Calculating on displaced geometry  97 (of 468) >>
	<< Calculating on displaced geometry  98 (of 468) >>
	<< Calculating on displaced geometry  99 (of 468) >>
	<< Calculating on displaced geometry 100 (of 468) >>
	<< Calculating on displaced geometry 101 (of 468) >>
	<< Calculating on displaced geometry 102 (of 468) >>
	<< Calculating on displaced geometry 103 (of 468) >>
	<< Calculating on displaced geometry 110 (of 468) >>
	<< Calculating on displaced geometry 107 (of 468) >>
	<< Calculating on displaced geometry 108 (of 468) >>
	<< Calculating on displaced geometry 109 (of 468) >>
	<< Calculating on displaced geometry 105 (of 468) >>
	<< Calculating on displaced geometry 104 (of 468) >>
	<< Calculating on displaced geometry 111 (of 468) >>
	<< Calculating on displaced geometry 112 (of 468) >>
	<< Calculating on displaced geometry 106 (of 468) >>
	<< Calculating on displaced geometry 113 (of 468) >>
	<< Calculating on displaced geometry 114 (of 468) >>
	<< Calculating on displaced geometry 115 (of 468) >>
	<< Calculating on displaced geometry 116 (of 468) >>
	<< Calculating on displaced geometry 117 (of 468) >>
	<< Calculating on displaced geometry 119 (of 468) >>
	<< Calculating on displaced geometry 118 (of 468) >>
	<< Calculating on displaced geometry 122 (of 468) >>
	<< Calculating on displaced geometry 120 (of 468) >>
	<< Calculating on displaced geometry 121 (of 468) >>
	<< Calculating on displaced geometry 123 (of 468) >>
	<< Calculating on displaced geometry 124 (of 468) >>
	<< Calculating on displaced geometry 126 (of 468) >>
	<< Calculating on displaced geometry 125 (of 468) >>
	<< Calculating on displaced geometry 127 (of 468) >>
	<< Calculating on displaced geometry 128 (of 468) >>
	<< Calculating on displaced geometry 129 (of 468) >>
	<< Calculating on displaced geometry 131 (of 468) >>
	<< Calculating on displaced geometry 130 (of 468) >>
	<< Calculating on displaced geometry 132 (of 468) >>
	<< Calculating on displaced geometry 133 (of 468) >>
	<< Calculating on displaced geometry 134 (of 468) >>
	<< Calculating on displaced geometry 135 (of 468) >>
	<< Calculating on displaced geometry 136 (of 468) >>
	<< Calculating on displaced geometry 139 (of 468) >>
	<< Calculating on displaced geometry 140 (of 468) >>
	<< Calculating on displaced geometry 138 (of 468) >>
	<< Calculating on displaced geometry 137 (of 468) >>
	<< Calculating on displaced geometry 141 (of 468) >>
	<< Calculating on displaced geometry 142 (of 468) >>
	<< Calculating on displaced geometry 143 (of 468) >>
	<< Calculating on displaced geometry 144 (of 468) >>
	<< Calculating on displaced geometry 145 (of 468) >>
	<< Calculating on displaced geometry 146 (of 468) >>
	<< Calculating on displaced geometry 147 (of 468) >>
	<< Calculating on displaced geometry 150 (of 468) >>
	<< Calculating on displaced geometry 148 (of 468) >>
	<< Calculating on displaced geometry 149 (of 468) >>
	<< Calculating on displaced geometry 151 (of 468) >>
	<< Calculating on displaced geometry 152 (of 468) >>
	<< Calculating on displaced geometry 154 (of 468) >>
	<< Calculating on displaced geometry 153 (of 468) >>
	<< Calculating on displaced geometry 156 (of 468) >>
	<< Calculating on displaced geometry 155 (of 468) >>
	<< Calculating on displaced geometry 157 (of 468) >>
	<< Calculating on displaced geometry 158 (of 468) >>
	<< Calculating on displaced geometry 159 (of 468) >>
	<< Calculating on displaced geometry 160 (of 468) >>
	<< Calculating on displaced geometry 161 (of 468) >>
	<< Calculating on displaced geometry 162 (of 468) >>
	<< Calculating on displaced geometry 164 (of 468) >>
	<< Calculating on displaced geometry 166 (of 468) >>
	<< Calculating on displaced geometry 163 (of 468) >>
	<< Calculating on displaced geometry 165 (of 468) >>
	<< Calculating on displaced geometry 167 (of 468) >>
	<< Calculating on displaced geometry 168 (of 468) >>
	<< Calculating on displaced geometry 169 (of 468) >>
	<< Calculating on displaced geometry 170 (of 468) >>
	<< Calculating on displaced geometry 171 (of 468) >>
	<< Calculating on displaced geometry 172 (of 468) >>
	<< Calculating on displaced geometry 173 (of 468) >>
	<< Calculating on displaced geometry 174 (of 468) >>
	<< Calculating on displaced geometry 175 (of 468) >>
	<< Calculating on displaced geometry 176 (of 468) >>
	<< Calculating on displaced geometry 177 (of 468) >>
	<< Calculating on displaced geometry 179 (of 468) >>
	<< Calculating on displaced geometry 181 (of 468) >>
	<< Calculating on displaced geometry 182 (of 468) >>
	<< Calculating on displaced geometry 183 (of 468) >>
	<< Calculating on displaced geometry 178 (of 468) >>
	<< Calculating on displaced geometry 180 (of 468) >>
	<< Calculating on displaced geometry 184 (of 468) >>
	<< Calculating on displaced geometry 185 (of 468) >>
	<< Calculating on displaced geometry 186 (of 468) >>
	<< Calculating on displaced geometry 187 (of 468) >>
	<< Calculating on displaced geometry 189 (of 468) >>
	<< Calculating on displaced geometry 188 (of 468) >>
	<< Calculating on displaced geometry 190 (of 468) >>
	<< Calculating on displaced geometry 191 (of 468) >>
	<< Calculating on displaced geometry 195 (of 468) >>
	<< Calculating on displaced geometry 194 (of 468) >>
	<< Calculating on displaced geometry 192 (of 468) >>
	<< Calculating on displaced geometry 196 (of 468) >>
	<< Calculating on displaced geometry 193 (of 468) >>
	<< Calculating on displaced geometry 197 (of 468) >>
	<< Calculating on displaced geometry 198 (of 468) >>
	<< Calculating on displaced geometry 199 (of 468) >>
	<< Calculating on displaced geometry 200 (of 468) >>
	<< Calculating on displaced geometry 201 (of 468) >>
	<< Calculating on displaced geometry 202 (of 468) >>
	<< Calculating on displaced geometry 203 (of 468) >>
	<< Calculating on displaced geometry 204 (of 468) >>
	<< Calculating on displaced geometry 205 (of 468) >>
	<< Calculating on displaced geometry 206 (of 468) >>
	<< Calculating on displaced geometry 207 (of 468) >>
	<< Calculating on displaced geometry 210 (of 468) >>
	<< Calculating on displaced geometry 211 (of 468) >>
	<< Calculating on displaced geometry 208 (of 468) >>
	<< Calculating on displaced geometry 209 (of 468) >>
	<< Calculating on displaced geometry 212 (of 468) >>
	<< Calculating on displaced geometry 213 (of 468) >>
	<< Calculating on displaced geometry 214 (of 468) >>
	<< Calculating on displaced geometry 215 (of 468) >>
	<< Calculating on displaced geometry 218 (of 468) >>
	<< Calculating on displaced geometry 216 (of 468) >>
	<< Calculating on displaced geometry 219 (of 468) >>
	<< Calculating on displaced geometry 217 (of 468) >>
	<< Calculating on displaced geometry 220 (of 468) >>
	<< Calculating on displaced geometry 222 (of 468) >>
	<< Calculating on displaced geometry 223 (of 468) >>
	<< Calculating on displaced geometry 221 (of 468) >>
	<< Calculating on displaced geometry 224 (of 468) >>
	<< Calculating on displaced geometry 225 (of 468) >>
	<< Calculating on displaced geometry 226 (of 468) >>
	<< Calculating on displaced geometry 227 (of 468) >>
	<< Calculating on displaced geometry 228 (of 468) >>
	<< Calculating on displaced geometry 229 (of 468) >>
	<< Calculating on displaced geometry 230 (of 468) >>
	<< Calculating on displaced geometry 231 (of 468) >>
	<< Calculating on displaced geometry 232 (of 468) >>
	<< Calculating on displaced geometry 233 (of 468) >>
	<< Calculating on displaced geometry 234 (of 468) >>
	<< Calculating on displaced geometry 235 (of 468) >>
	<< Calculating on displaced geometry 237 (of 468) >>
	<< Calculating on displaced geometry 236 (of 468) >>
	<< Calculating on displaced geometry 240 (of 468) >>
	<< Calculating on displaced geometry 238 (of 468) >>
	<< Calculating on displaced geometry 241 (of 468) >>
	<< Calculating on displaced geometry 242 (of 468) >>
	<< Calculating on displaced geometry 239 (of 468) >>
	<< Calculating on displaced geometry 243 (of 468) >>
	<< Calculating on displaced geometry 244 (of 468) >>
	<< Calculating on displaced geometry 245 (of 468) >>
	<< Calculating on displaced geometry 246 (of 468) >>
	<< Calculating on displaced geometry 247 (of 468) >>
	<< Calculating on displaced geometry 248 (of 468) >>
	<< Calculating on displaced geometry 249 (of 468) >>
	<< Calculating on displaced geometry 250 (of 468) >>
	<< Calculating on displaced geometry 251 (of 468) >>
	<< Calculating on displaced geometry 252 (of 468) >>
	<< Calculating on displaced geometry 253 (of 468) >>
	<< Calculating on displaced geometry 254 (of 468) >>
	<< Calculating on displaced geometry 256 (of 468) >>
	<< Calculating on displaced geometry 255 (of 468) >>
	<< Calculating on displaced geometry 257 (of 468) >>
	<< Calculating on displaced geometry 258 (of 468) >>
	<< Calculating on displaced geometry 259 (of 468) >>
	<< Calculating on displaced geometry 260 (of 468) >>
	<< Calculating on displaced geometry 261 (of 468) >>
	<< Calculating on displaced geometry 262 (of 468) >>
	<< Calculating on displaced geometry 263 (of 468) >>
	<< Calculating on displaced geometry 264 (of 468) >>
	<< Calculating on displaced geometry 265 (of 468) >>
	<< Calculating on displaced geometry 268 (of 468) >>
	<< Calculating on displaced geometry 269 (of 468) >>
	<< Calculating on displaced geometry 270 (of 468) >>
	<< Calculating on displaced geometry 271 (of 468) >>
	<< Calculating on displaced geometry 267 (of 468) >>
	<< Calculating on displaced geometry 266 (of 468) >>
	<< Calculating on displaced geometry 272 (of 468) >>
	<< Calculating on displaced geometry 273 (of 468) >>
	<< Calculating on displaced geometry 275 (of 468) >>
	<< Calculating on displaced geometry 274 (of 468) >>
	<< Calculating on displaced geometry 277 (of 468) >>
	<< Calculating on displaced geometry 276 (of 468) >>
	<< Calculating on displaced geometry 278 (of 468) >>
	<< Calculating on displaced geometry 279 (of 468) >>
	<< Calculating on displaced geometry 280 (of 468) >>
	<< Calculating on displaced geometry 281 (of 468) >>
	<< Calculating on displaced geometry 282 (of 468) >>
	<< Calculating on displaced geometry 283 (of 468) >>
	<< Calculating on displaced geometry 284 (of 468) >>
	<< Calculating on displaced geometry 285 (of 468) >>
	<< Calculating on displaced geometry 286 (of 468) >>
	<< Calculating on displaced geometry 287 (of 468) >>
	<< Calculating on displaced geometry 288 (of 468) >>
	<< Calculating on displaced geometry 290 (of 468) >>
	<< Calculating on displaced geometry 289 (of 468) >>
	<< Calculating on displaced geometry 291 (of 468) >>
	<< Calculating on displaced geometry 292 (of 468) >>
	<< Calculating on displaced geometry 293 (of 468) >>
	<< Calculating on displaced geometry 297 (of 468) >>
	<< Calculating on displaced geometry 294 (of 468) >>
	<< Calculating on displaced geometry 299 (of 468) >>
	<< Calculating on displaced geometry 296 (of 468) >>
	<< Calculating on displaced geometry 295 (of 468) >>
	<< Calculating on displaced geometry 298 (of 468) >>
	<< Calculating on displaced geometry 300 (of 468) >>
	<< Calculating on displaced geometry 301 (of 468) >>
	<< Calculating on displaced geometry 302 (of 468) >>
	<< Calculating on displaced geometry 303 (of 468) >>
	<< Calculating on displaced geometry 304 (of 468) >>
	<< Calculating on displaced geometry 305 (of 468) >>
	<< Calculating on displaced geometry 306 (of 468) >>
	<< Calculating on displaced geometry 307 (of 468) >>
	<< Calculating on displaced geometry 308 (of 468) >>
	<< Calculating on displaced geometry 309 (of 468) >>
	<< Calculating on displaced geometry 310 (of 468) >>
	<< Calculating on displaced geometry 311 (of 468) >>
	<< Calculating on displaced geometry 312 (of 468) >>
	<< Calculating on displaced geometry 313 (of 468) >>
	<< Calculating on displaced geometry 314 (of 468) >>
	<< Calculating on displaced geometry 315 (of 468) >>
	<< Calculating on displaced geometry 316 (of 468) >>
	<< Calculating on displaced geometry 317 (of 468) >>
	<< Calculating on displaced geometry 320 (of 468) >>
	<< Calculating on displaced geometry 319 (of 468) >>
	<< Calculating on displaced geometry 318 (of 468) >>
	<< Calculating on displaced geometry 321 (of 468) >>
	<< Calculating on displaced geometry 322 (of 468) >>
	<< Calculating on displaced geometry 323 (of 468) >>
	<< Calculating on displaced geometry 324 (of 468) >>
	<< Calculating on displaced geometry 325 (of 468) >>
	<< Calculating on displaced geometry 326 (of 468) >>
	<< Calculating on displaced geometry 327 (of 468) >>
	<< Calculating on displaced geometry 328 (of 468) >>
	<< Calculating on displaced geometry 329 (of 468) >>
	<< Calculating on displaced geometry 330 (of 468) >>
	<< Calculating on displaced geometry 331 (of 468) >>
	<< Calculating on displaced geometry 332 (of 468) >>
	<< Calculating on displaced geometry 333 (of 468) >>
	<< Calculating on displaced geometry 334 (of 468) >>
	<< Calculating on displaced geometry 335 (of 468) >>
	<< Calculating on displaced geometry 336 (of 468) >>
	<< Calculating on displaced geometry 337 (of 468) >>
	<< Calculating on displaced geometry 338 (of 468) >>
	<< Calculating on displaced geometry 339 (of 468) >>
	<< Calculating on displaced geometry 340 (of 468) >>
	<< Calculating on displaced geometry 341 (of 468) >>
	<< Calculating on displaced geometry 342 (of 468) >>
	<< Calculating on displaced geometry 343 (of 468) >>
	<< Calculating on displaced geometry 344 (of 468) >>
	<< Calculating on displaced geometry 345 (of 468) >>
	<< Calculating on displaced geometry 346 (of 468) >>
	<< Calculating on displaced geometry 347 (of 468) >>
	<< Calculating on displaced geometry 348 (of 468) >>
	<< Calculating on displaced geometry 350 (of 468) >>
	<< Calculating on displaced geometry 349 (of 468) >>
	<< Calculating on displaced geometry 352 (of 468) >>
	<< Calculating on displaced geometry 351 (of 468) >>
	<< Calculating on displaced geometry 353 (of 468) >>
	<< Calculating on displaced geometry 355 (of 468) >>
	<< Calculating on displaced geometry 354 (of 468) >>
	<< Calculating on displaced geometry 356 (of 468) >>
	<< Calculating on displaced geometry 357 (of 468) >>
	<< Calculating on displaced geometry 358 (of 468) >>
	<< Calculating on displaced geometry 360 (of 468) >>
	<< Calculating on displaced geometry 361 (of 468) >>
	<< Calculating on displaced geometry 359 (of 468) >>
	<< Calculating on displaced geometry 362 (of 468) >>
	<< Calculating on displaced geometry 363 (of 468) >>
	<< Calculating on displaced geometry 364 (of 468) >>
	<< Calculating on displaced geometry 365 (of 468) >>
	<< Calculating on displaced geometry 366 (of 468) >>
	<< Calculating on displaced geometry 367 (of 468) >>
	<< Calculating on displaced geometry 368 (of 468) >>
	<< Calculating on displaced geometry 369 (of 468) >>
	<< Calculating on displaced geometry 370 (of 468) >>
	<< Calculating on displaced geometry 371 (of 468) >>
	<< Calculating on displaced geometry 372 (of 468) >>
	<< Calculating on displaced geometry 373 (of 468) >>
	<< Calculating on displaced geometry 374 (of 468) >>
	<< Calculating on displaced geometry 375 (of 468) >>
	<< Calculating on displaced geometry 376 (of 468) >>
	<< Calculating on displaced geometry 377 (of 468) >>
	<< Calculating on displaced geometry 378 (of 468) >>
	<< Calculating on displaced geometry 379 (of 468) >>
	<< Calculating on displaced geometry 381 (of 468) >>
	<< Calculating on displaced geometry 382 (of 468) >>
	<< Calculating on displaced geometry 384 (of 468) >>
	<< Calculating on displaced geometry 380 (of 468) >>
	<< Calculating on displaced geometry 385 (of 468) >>
	<< Calculating on displaced geometry 383 (of 468) >>
	<< Calculating on displaced geometry 386 (of 468) >>
	<< Calculating on displaced geometry 387 (of 468) >>
	<< Calculating on displaced geometry 388 (of 468) >>
	<< Calculating on displaced geometry 389 (of 468) >>
	<< Calculating on displaced geometry 390 (of 468) >>
	<< Calculating on displaced geometry 391 (of 468) >>
	<< Calculating on displaced geometry 392 (of 468) >>
	<< Calculating on displaced geometry 393 (of 468) >>
	<< Calculating on displaced geometry 394 (of 468) >>
	<< Calculating on displaced geometry 395 (of 468) >>
	<< Calculating on displaced geometry 397 (of 468) >>
	<< Calculating on displaced geometry 396 (of 468) >>
	<< Calculating on displaced geometry 398 (of 468) >>
	<< Calculating on displaced geometry 399 (of 468) >>
	<< Calculating on displaced geometry 400 (of 468) >>
	<< Calculating on displaced geometry 401 (of 468) >>
	<< Calculating on displaced geometry 402 (of 468) >>
	<< Calculating on displaced geometry 403 (of 468) >>
	<< Calculating on displaced geometry 404 (of 468) >>
	<< Calculating on displaced geometry 405 (of 468) >>
	<< Calculating on displaced geometry 406 (of 468) >>
	<< Calculating on displaced geometry 407 (of 468) >>
	<< Calculating on displaced geometry 408 (of 468) >>
	<< Calculating on displaced geometry 411 (of 468) >>
	<< Calculating on displaced geometry 412 (of 468) >>
	<< Calculating on displaced geometry 409 (of 468) >>
	<< Calculating on displaced geometry 410 (of 468) >>
	<< Calculating on displaced geometry 413 (of 468) >>
	<< Calculating on displaced geometry 414 (of 468) >>
	<< Calculating on displaced geometry 415 (of 468) >>
	<< Calculating on displaced geometry 416 (of 468) >>
	<< Calculating on displaced geometry 418 (of 468) >>
	<< Calculating on displaced geometry 419 (of 468) >>
	<< Calculating on displaced geometry 420 (of 468) >>
	<< Calculating on displaced geometry 417 (of 468) >>
	<< Calculating on displaced geometry 421 (of 468) >>
	<< Calculating on displaced geometry 422 (of 468) >>
	<< Calculating on displaced geometry 423 (of 468) >>
	<< Calculating on displaced geometry 424 (of 468) >>
	<< Calculating on displaced geometry 425 (of 468) >>
	<< Calculating on displaced geometry 426 (of 468) >>
	<< Calculating on displaced geometry 427 (of 468) >>
	<< Calculating on displaced geometry 428 (of 468) >>
	<< Calculating on displaced geometry 429 (of 468) >>
	<< Calculating on displaced geometry 430 (of 468) >>
	<< Calculating on displaced geometry 431 (of 468) >>
	<< Calculating on displaced geometry 432 (of 468) >>
	<< Calculating on displaced geometry 433 (of 468) >>
	<< Calculating on displaced geometry 435 (of 468) >>
	<< Calculating on displaced geometry 434 (of 468) >>
	<< Calculating on displaced geometry 436 (of 468) >>
	<< Calculating on displaced geometry 437 (of 468) >>
	<< Calculating on displaced geometry 438 (of 468) >>
	<< Calculating on displaced geometry 439 (of 468) >>
	<< Calculating on displaced geometry 440 (of 468) >>
	<< Calculating on displaced geometry 441 (of 468) >>
	<< Calculating on displaced geometry 443 (of 468) >>
	<< Calculating on displaced geometry 442 (of 468) >>
	<< Calculating on displaced geometry 444 (of 468) >>
	<< Calculating on displaced geometry 445 (of 468) >>
	<< Calculating on displaced geometry 446 (of 468) >>
	<< Calculating on displaced geometry 447 (of 468) >>
	<< Calculating on displaced geometry 448 (of 468) >>
	<< Calculating on displaced geometry 449 (of 468) >>
	<< Calculating on displaced geometry 450 (of 468) >>
	<< Calculating on displaced geometry 451 (of 468) >>
	<< Calculating on displaced geometry 452 (of 468) >>
	<< Calculating on displaced geometry 453 (of 468) >>
	<< Calculating on displaced geometry 454 (of 468) >>
	<< Calculating on displaced geometry 455 (of 468) >>
	<< Calculating on displaced geometry 457 (of 468) >>
	<< Calculating on displaced geometry 456 (of 468) >>
	<< Calculating on displaced geometry 458 (of 468) >>
	<< Calculating on displaced geometry 459 (of 468) >>
	<< Calculating on displaced geometry 462 (of 468) >>
	<< Calculating on displaced geometry 460 (of 468) >>
	<< Calculating on displaced geometry 461 (of 468) >>
	<< Calculating on displaced geometry 463 (of 468) >>
	<< Calculating on displaced geometry 464 (of 468) >>
	<< Calculating on displaced geometry 465 (of 468) >>
	<< Calculating on displaced geometry 466 (of 468) >>
	<< Calculating on displaced geometry 467 (of 468) >>
	<< Calculating on displaced geometry 468 (of 468) >>

-----------------------
VIBRATIONAL FREQUENCIES
-----------------------

Scaling factor for frequencies =  1.000000000 (already applied!)

   0:         0.00 cm**-1
   1:         0.00 cm**-1
   2:         0.00 cm**-1
   3:         0.00 cm**-1
   4:         0.00 cm**-1
   5:         0.00 cm**-1
   6:        40.82 cm**-1
   7:        51.62 cm**-1
   8:        57.54 cm**-1
   9:        63.32 cm**-1
  10:        67.11 cm**-1
  11:        70.53 cm**-1
  12:        74.28 cm**-1
  13:        82.06 cm**-1
  14:        83.94 cm**-1
  15:        88.23 cm**-1
  16:        91.79 cm**-1
  17:        95.06 cm**-1
  18:        95.89 cm**-1
  19:        98.93 cm**-1
  20:       104.93 cm**-1
  21:       106.15 cm**-1
  22:       110.89 cm**-1
  23:       115.80 cm**-1
  24:       121.08 cm**-1
  25:       125.84 cm**-1
  26:       130.45 cm**-1
  27:       131.64 cm**-1
  28:       135.63 cm**-1
  29:       140.75 cm**-1
  30:       146.77 cm**-1
  31:       155.61 cm**-1
  32:       162.45 cm**-1
  33:       163.00 cm**-1
  34:       165.84 cm**-1
  35:       172.76 cm**-1
  36:       173.86 cm**-1
  37:       178.95 cm**-1
  38:       182.84 cm**-1
  39:       184.84 cm**-1
  40:       191.30 cm**-1
  41:       195.23 cm**-1
  42:       198.74 cm**-1
  43:       200.80 cm**-1
  44:       204.71 cm**-1
  45:       206.20 cm**-1
  46:       209.02 cm**-1
  47:       213.94 cm**-1
  48:       215.57 cm**-1
  49:       225.71 cm**-1
  50:       229.90 cm**-1
  51:       233.39 cm**-1
  52:       237.40 cm**-1
  53:       243.20 cm**-1
  54:       247.25 cm**-1
  55:       252.46 cm**-1
  56:       254.84 cm**-1
  57:       259.50 cm**-1
  58:       264.68 cm**-1
  59:       271.24 cm**-1
  60:       273.41 cm**-1
  61:       277.82 cm**-1
  62:       280.55 cm**-1
  63:       287.99 cm**-1
  64:       291.66 cm**-1
  65:       294.41 cm**-1
  66:       307.70 cm**-1
  67:       314.28 cm**-1
  68:       316.89 cm**-1
  69:       319.50 cm**-1
  70:       331.81 cm**-1
  71:       332.47 cm**-1
  72:       336.05 cm**-1
  73:       343.54 cm**-1
  74:       347.43 cm**-1
  75:       358.03 cm**-1
  76:       360.64 cm**-1
  77:       367.01 cm**-1
  78:       371.60 cm**-1
  79:       381.83 cm**-1
  80:       387.56 cm**-1
  81:       390.13 cm**-1
  82:       392.87 cm**-1
  83:       402.77 cm**-1
  84:       413.95 cm**-1
  85:       421.03 cm**-1
  86:       431.54 cm**-1
  87:       443.47 cm**-1
  88:       445.65 cm**-1
  89:       458.60 cm**-1
  90:       476.75 cm**-1
  91:       479.63 cm**-1
  92:       498.31 cm**-1
  93:       504.31 cm**-1
  94:       505.21 cm**-1
  95:       512.06 cm**-1
  96:       519.65 cm**-1
  97:       520.64 cm**-1
  98:       537.92 cm**-1
  99:       544.70 cm**-1
 100:       547.19 cm**-1
 101:       549.58 cm**-1
 102:       557.40 cm**-1
 103:       561.68 cm**-1
 104:       571.84 cm**-1
 105:       576.08 cm**-1
 106:       578.92 cm**-1
 107:       587.35 cm**-1
 108:       595.97 cm**-1
 109:       602.40 cm**-1
 110:       605.60 cm**-1
 111:       611.40 cm**-1
 112:       613.58 cm**-1
 113:       621.82 cm**-1
 114:       626.53 cm**-1
 115:       630.25 cm**-1
 116:       635.69 cm**-1
 117:       638.35 cm**-1
 118:       643.51 cm**-1
 119:       648.73 cm**-1
 120:       651.27 cm**-1
 121:       654.18 cm**-1
 122:       666.12 cm**-1
 123:       671.49 cm**-1
 124:       675.42 cm**-1
 125:       677.23 cm**-1
 126:       686.21 cm**-1
 127:       700.45 cm**-1
 128:       700.52 cm**-1
 129:       714.35 cm**-1
 130:       721.99 cm**-1
 131:       734.34 cm**-1
 132:       737.91 cm**-1
 133:       744.75 cm**-1
 134:       747.71 cm**-1
 135:       756.27 cm**-1
 136:       760.83 cm**-1
 137:       764.02 cm**-1
 138:       775.55 cm**-1
 139:       783.83 cm**-1
 140:       788.65 cm**-1
 141:       796.62 cm**-1
 142:       818.79 cm**-1
 143:       831.98 cm**-1
 144:       840.02 cm**-1
 145:       856.51 cm**-1
 146:       859.43 cm**-1
 147:       870.68 cm**-1
 148:       876.25 cm**-1
 149:       887.11 cm**-1
 150:       903.80 cm**-1
 151:       912.33 cm**-1
 152:       915.80 cm**-1
 153:       943.34 cm**-1
 154:       957.32 cm**-1
 155:       979.33 cm**-1
 156:      1443.98 cm**-1
 157:      1454.06 cm**-1
 158:      1478.68 cm**-1
 159:      1480.20 cm**-1
 160:      1483.42 cm**-1
 161:      1494.95 cm**-1
 162:      1501.06 cm**-1
 163:      1506.55 cm**-1
 164:      1507.66 cm**-1
 165:      1512.15 cm**-1
 166:      1516.42 cm**-1
 167:      1519.07 cm**-1
 168:      1522.72 cm**-1
 169:      1527.37 cm**-1
 170:      1527.70 cm**-1
 171:      1528.40 cm**-1
 172:      1534.73 cm**-1
 173:      1540.01 cm**-1
 174:      1540.77 cm**-1
 175:      1542.11 cm**-1
 176:      1545.04 cm**-1
 177:      1546.64 cm**-1
 178:      1553.02 cm**-1
 179:      1555.81 cm**-1
 180:      1566.19 cm**-1
 181:      1584.77 cm**-1
 182:      2957.76 cm**-1
 183:      2987.40 cm**-1
 184:      3042.09 cm**-1
 185:      3049.52 cm**-1
 186:      3063.55 cm**-1
 187:      3076.81 cm**-1
 188:      3116.44 cm**-1
 189:      3137.90 cm**-1
 190:      3140.20 cm**-1
 191:      3141.02 cm**-1
 192:      3152.91 cm**-1
 193:      3162.37 cm**-1
 194:      3173.02 cm**-1
 195:      3187.99 cm**-1
 196:      3190.59 cm**-1
 197:      3195.85 cm**-1
 198:      3221.39 cm**-1
 199:      3227.16 cm**-1
 200:      3245.50 cm**-1
 201:      3259.34 cm**-1
 202:      3262.70 cm**-1
 203:      3278.12 cm**-1
 204:      3282.94 cm**-1
 205:      3294.52 cm**-1
 206:      3297.53 cm**-1
 207:      3332.02 cm**-1
 208:      3343.11 cm**-1
 209:      3348.70 cm**-1
 210:      3349.91 cm**-1
 211:      3353.93 cm**-1
 212:      3371.50 cm**-1
 213:      3381.49 cm**-1
 214:      3382.72 cm**-1
 215:      3397.80 cm**-1
 216:      3403.88 cm**-1
 217:      3404.29 cm**-1
 218:      3411.44 cm**-1
 219:      3420.79 cm**-1
 220:      3431.59 cm**-1
 221:      3438.02 cm**-1
 222:      3441.38 cm**-1
 223:      3459.04 cm**-1
 224:      3477.43 cm**-1
 225:      3479.06 cm**-1
 226:      3484.18 cm**-1
 227:      3519.29 cm**-1
 228:      3542.81 cm**-1
 229:      3581.49 cm**-1
 230:      3594.85 cm**-1
 231:      3658.60 cm**-1
 232:      3686.10 cm**-1
 233:      3686.87 cm**-1


------------
NORMAL MODES
------------

These modes are the cartesian displacements weighted by the diagonal matrix
M(i,i)=1/sqrt(m[i]) where m[i] is the mass of the displaced atom
Thus, these vectors are normalized but *not* orthogonal

                  0          1          2          3          4          5    
      0       0.000000   0.000000   0.000000   0.000000   0.000000   0.000000
      1       0.000000   0.000000   0.000000   0.000000   0.000000   0.000000
      2       0.000000   0.000000   0.000000   0.000000   0.000000   0.000000
      3       0.000000   0.000000   0.000000   0.000000   0.000000   0.000000
      4       0.000000   0.000000   0.000000   0.000000   0.000000   0.000000
      5       0.000000   0.000000   0.000000   0.000000   0.000000   0.000000
      6       0.000000   0.000000   0.000000   0.000000   0.000000   0.000000
      7       0.000000   0.000000   0.000000   0.000000   0.000000   0.000000
      8       0.000000   0.000000   0.000000   0.000000   0.000000   0.000000
      9       0.000000   0.000000   0.000000   0.000000   0.000000   0.000000
     10       0.000000   0.000000   0.000000   0.000000   0.000000   0.000000
     11       0.000000   0.000000   0.000000   0.000000   0.000000   0.000000
     12       0.000000   0.000000   0.000000   0.000000   0.000000   0.000000
     13       0.000000   0.000000   0.000000   0.000000   0.000000   0.000000
     14       0.000000   0.000000   0.000000   0.000000   0.000000   0.000000
     15       0.000000   0.000000   0.000000   0.000000   0.000000   0.000000
     16       0.000000   0.000000   0.000000   0.000000   0.000000   0.000000
     17       0.000000   0.000000   0.000000   0.000000   0.000000   0.000000
     18       0.000000   0.000000   0.000000   0.000000   0.000000   0.000000
     19       0.000000   0.000000   0.000000   0.000000   0.000000   0.000000
     20       0.000000   0.000000   0.000000   0.000000   0.000000   0.000000
     21       0.000000   0.000000   0.000000   0.000000   0.000000   0.000000
     22       0.000000   0.000000   0.000000   0.000000   0.000000   0.000000
     23       0.000000   0.000000   0.000000   0.000000   0.000000   0.000000
     24       0.000000   0.000000   0.000000   0.000000   0.000000   0.000000
     25       0.000000   0.000000   0.000000   0.000000   0.000000   0.000000
     26       0.000000   0.000000   0.000000   0.000000   0.000000   0.000000
     27       0.000000   0.000000   0.000000   0.000000   0.000000   0.000000
     28       0.000000   0.000000   0.000000   0.000000   0.000000   0.000000
     29       0.000000   0.000000   0.000000   0.000000   0.000000   0.000000
     30       0.000000   0.000000   0.000000   0.000000   0.000000   0.000000
     31       0.000000   0.000000   0.000000   0.000000   0.000000   0.000000
     32       0.000000   0.000000   0.000000   0.000000   0.000000   0.000000
     33       0.000000   0.000000   0.000000   0.000000   0.000000   0.000000
     34       0.000000   0.000000   0.000000   0.000000   0.000000   0.000000
     35       0.000000   0.000000   0.000000   0.000000   0.000000   0.000000
     36       0.000000   0.000000   0.000000   0.000000   0.000000   0.000000
     37       0.000000   0.000000   0.000000   0.000000   0.000000   0.000000
     38       0.000000   0.000000   0.000000   0.000000   0.000000   0.000000
     39       0.000000   0.000000   0.000000   0.000000   0.000000   0.000000
     40       0.000000   0.000000   0.000000   0.000000   0.000000   0.000000
     41       0.000000   0.000000   0.000000   0.000000   0.000000   0.000000
     42       0.000000   0.000000   0.000000   0.000000   0.000000   0.000000
     43       0.000000   0.000000   0.000000   0.000000   0.000000   0.000000
     44       0.000000   0.000000   0.000000   0.000000   0.000000   0.000000
     45       0.000000   0.000000   0.000000   0.000000   0.000000   0.000000
     46       0.000000   0.000000   0.000000   0.000000   0.000000   0.000000
     47       0.000000   0.000000   0.000000   0.000000   0.000000   0.000000
     48       0.000000   0.000000   0.000000   0.000000   0.000000   0.000000
     49       0.000000   0.000000   0.000000   0.000000   0.000000   0.000000
     50       0.000000   0.000000   0.000000   0.000000   0.000000   0.000000
     51       0.000000   0.000000   0.000000   0.000000   0.000000   0.000000
     52       0.000000   0.000000   0.000000   0.000000   0.000000   0.000000
     53       0.000000   0.000000   0.000000   0.000000   0.000000   0.000000
     54       0.000000   0.000000   0.000000   0.000000   0.000000   0.000000
     55       0.000000   0.000000   0.000000   0.000000   0.000000   0.000000
     56       0.000000   0.000000   0.000000   0.000000   0.000000   0.000000
     57       0.000000   0.000000   0.000000   0.000000   0.000000   0.000000
     58       0.000000   0.000000   0.000000   0.000000   0.000000   0.000000
     59       0.000000   0.000000   0.000000   0.000000   0.000000   0.000000
     60       0.000000   0.000000   0.000000   0.000000   0.000000   0.000000
     61       0.000000   0.000000   0.000000   0.000000   0.000000   0.000000
     62       0.000000   0.000000   0.000000   0.000000   0.000000   0.000000
     63       0.000000   0.000000   0.000000   0.000000   0.000000   0.000000
     64       0.000000   0.000000   0.000000   0.000000   0.000000   0.000000
     65       0.000000   0.000000   0.000000   0.000000   0.000000   0.000000
     66       0.000000   0.000000   0.000000   0.000000   0.000000   0.000000
     67       0.000000   0.000000   0.000000   0.000000   0.000000   0.000000
     68       0.000000   0.000000   0.000000   0.000000   0.000000   0.000000
     69       0.000000   0.000000   0.000000   0.000000   0.000000   0.000000
     70       0.000000   0.000000   0.000000   0.000000   0.000000   0.000000
     71       0.000000   0.000000   0.000000   0.000000   0.000000   0.000000
     72       0.000000   0.000000   0.000000   0.000000   0.000000   0.000000
     73       0.000000   0.000000   0.000000   0.000000   0.000000   0.000000
     74       0.000000   0.000000   0.000000   0.000000   0.000000   0.000000
     75       0.000000   0.000000   0.000000   0.000000   0.000000   0.000000
     76       0.000000   0.000000   0.000000   0.000000   0.000000   0.000000
     77       0.000000   0.000000   0.000000   0.000000   0.000000   0.000000
     78       0.000000   0.000000   0.000000   0.000000   0.000000   0.000000
     79       0.000000   0.000000   0.000000   0.000000   0.000000   0.000000
     80       0.000000   0.000000   0.000000   0.000000   0.000000   0.000000
     81       0.000000   0.000000   0.000000   0.000000   0.000000   0.000000
     82       0.000000   0.000000   0.000000   0.000000   0.000000   0.000000
     83       0.000000   0.000000   0.000000   0.000000   0.000000   0.000000
     84       0.000000   0.000000   0.000000   0.000000   0.000000   0.000000
     85       0.000000   0.000000   0.000000   0.000000   0.000000   0.000000
     86       0.000000   0.000000   0.000000   0.000000   0.000000   0.000000
     87       0.000000   0.000000   0.000000   0.000000   0.000000   0.000000
     88       0.000000   0.000000   0.000000   0.000000   0.000000   0.000000
     89       0.000000   0.000000   0.000000   0.000000   0.000000   0.000000
     90       0.000000   0.000000   0.000000   0.000000   0.000000   0.000000
     91       0.000000   0.000000   0.000000   0.000000   0.000000   0.000000
     92       0.000000   0.000000   0.000000   0.000000   0.000000   0.000000
     93       0.000000   0.000000   0.000000   0.000000   0.000000   0.000000
     94       0.000000   0.000000   0.000000   0.000000   0.000000   0.000000
     95       0.000000   0.000000   0.000000   0.000000   0.000000   0.000000
     96       0.000000   0.000000   0.000000   0.000000   0.000000   0.000000
     97       0.000000   0.000000   0.000000   0.000000   0.000000   0.000000
     98       0.000000   0.000000   0.000000   0.000000   0.000000   0.000000
     99       0.000000   0.000000   0.000000   0.000000   0.000000   0.000000
    100       0.000000   0.000000   0.000000   0.000000   0.000000   0.000000
    101       0.000000   0.000000   0.000000   0.000000   0.000000   0.000000
    102       0.000000   0.000000   0.000000   0.000000   0.000000   0.000000
    103       0.000000   0.000000   0.000000   0.000000   0.000000   0.000000
    104       0.000000   0.000000   0.000000   0.000000   0.000000   0.000000
    105       0.000000   0.000000   0.000000   0.000000   0.000000   0.000000
    106       0.000000   0.000000   0.000000   0.000000   0.000000   0.000000
    107       0.000000   0.000000   0.000000   0.000000   0.000000   0.000000
    108       0.000000   0.000000   0.000000   0.000000   0.000000   0.000000
    109       0.000000   0.000000   0.000000   0.000000   0.000000   0.000000
    110       0.000000   0.000000   0.000000   0.000000   0.000000   0.000000
    111       0.000000   0.000000   0.000000   0.000000   0.000000   0.000000
    112       0.000000   0.000000   0.000000   0.000000   0.000000   0.000000
    113       0.000000   0.000000   0.000000   0.000000   0.000000   0.000000
    114       0.000000   0.000000   0.000000   0.000000   0.000000   0.000000
    115       0.000000   0.000000   0.000000   0.000000   0.000000   0.000000
    116       0.000000   0.000000   0.000000   0.000000   0.000000   0.000000
    117       0.000000   0.000000   0.000000   0.000000   0.000000   0.000000
    118       0.000000   0.000000   0.000000   0.000000   0.000000   0.000000
    119       0.000000   0.000000   0.000000   0.000000   0.000000   0.000000
    120       0.000000   0.000000   0.000000   0.000000   0.000000   0.000000
    121       0.000000   0.000000   0.000000   0.000000   0.000000   0.000000
    122       0.000000   0.000000   0.000000   0.000000   0.000000   0.000000
    123       0.000000   0.000000   0.000000   0.000000   0.000000   0.000000
    124       0.000000   0.000000   0.000000   0.000000   0.000000   0.000000
    125       0.000000   0.000000   0.000000   0.000000   0.000000   0.000000
    126       0.000000   0.000000   0.000000   0.000000   0.000000   0.000000
    127       0.000000   0.000000   0.000000   0.000000   0.000000   0.000000
    128       0.000000   0.000000   0.000000   0.000000   0.000000   0.000000
    129       0.000000   0.000000   0.000000   0.000000   0.000000   0.000000
    130       0.000000   0.000000   0.000000   0.000000   0.000000   0.000000
    131       0.000000   0.000000   0.000000   0.000000   0.000000   0.000000
    132       0.000000   0.000000   0.000000   0.000000   0.000000   0.000000
    133       0.000000   0.000000   0.000000   0.000000   0.000000   0.000000
    134       0.000000   0.000000   0.000000   0.000000   0.000000   0.000000
    135       0.000000   0.000000   0.000000   0.000000   0.000000   0.000000
    136       0.000000   0.000000   0.000000   0.000000   0.000000   0.000000
    137       0.000000   0.000000   0.000000   0.000000   0.000000   0.000000
    138       0.000000   0.000000   0.000000   0.000000   0.000000   0.000000
    139       0.000000   0.000000   0.000000   0.000000   0.000000   0.000000
    140       0.000000   0.000000   0.000000   0.000000   0.000000   0.000000
    141       0.000000   0.000000   0.000000   0.000000   0.000000   0.000000
    142       0.000000   0.000000   0.000000   0.000000   0.000000   0.000000
    143       0.000000   0.000000   0.000000   0.000000   0.000000   0.000000
    144       0.000000   0.000000   0.000000   0.000000   0.000000   0.000000
    145       0.000000   0.000000   0.000000   0.000000   0.000000   0.000000
    146       0.000000   0.000000   0.000000   0.000000   0.000000   0.000000
    147       0.000000   0.000000   0.000000   0.000000   0.000000   0.000000
    148       0.000000   0.000000   0.000000   0.000000   0.000000   0.000000
    149       0.000000   0.000000   0.000000   0.000000   0.000000   0.000000
    150       0.000000   0.000000   0.000000   0.000000   0.000000   0.000000
    151       0.000000   0.000000   0.000000   0.000000   0.000000   0.000000
    152       0.000000   0.000000   0.000000   0.000000   0.000000   0.000000
    153       0.000000   0.000000   0.000000   0.000000   0.000000   0.000000
    154       0.000000   0.000000   0.000000   0.000000   0.000000   0.000000
    155       0.000000   0.000000   0.000000   0.000000   0.000000   0.000000
    156       0.000000   0.000000   0.000000   0.000000   0.000000   0.000000
    157       0.000000   0.000000   0.000000   0.000000   0.000000   0.000000
    158       0.000000   0.000000   0.000000   0.000000   0.000000   0.000000
    159       0.000000   0.000000   0.000000   0.000000   0.000000   0.000000
    160       0.000000   0.000000   0.000000   0.000000   0.000000   0.000000
    161       0.000000   0.000000   0.000000   0.000000   0.000000   0.000000
    162       0.000000   0.000000   0.000000   0.000000   0.000000   0.000000
    163       0.000000   0.000000   0.000000   0.000000   0.000000   0.000000
    164       0.000000   0.000000   0.000000   0.000000   0.000000   0.000000
    165       0.000000   0.000000   0.000000   0.000000   0.000000   0.000000
    166       0.000000   0.000000   0.000000   0.000000   0.000000   0.000000
    167       0.000000   0.000000   0.000000   0.000000   0.000000   0.000000
    168       0.000000   0.000000   0.000000   0.000000   0.000000   0.000000
    169       0.000000   0.000000   0.000000   0.000000   0.000000   0.000000
    170       0.000000   0.000000   0.000000   0.000000   0.000000   0.000000
    171       0.000000   0.000000   0.000000   0.000000   0.000000   0.000000
    172       0.000000   0.000000   0.000000   0.000000   0.000000   0.000000
[...]
182:   2957.76   0.020266  102.42  0.002138  (-0.039168 -0.022063  0.010830)
183:   2987.40   0.175162  885.20  0.018297  (-0.076127  0.109279  0.023669)
184:   3042.09   0.016179   81.76  0.001660  ( 0.026563 -0.027902  0.013250)
185:   3049.52   0.093765  473.85  0.009595  ( 0.053282  0.012324 -0.081267)
186:   3063.55   0.264965  1339.02  0.026990  (-0.034750 -0.093890  0.130259)
187:   3076.81   0.350371  1770.63  0.035536  ( 0.114750  0.043864  0.142984)
188:   3116.44   0.015428   77.97  0.001545  (-0.009124 -0.004934 -0.037911)
189:   3137.90   0.084023  424.62  0.008356  ( 0.088429 -0.023107  0.001560)
190:   3140.20   0.198278  1002.02  0.019704  (-0.067004 -0.086190 -0.088238)
191:   3141.02   0.034983  176.79  0.003476  ( 0.043611 -0.039309 -0.005339)
192:   3152.91   0.207793  1050.10  0.020567  ( 0.046160 -0.112084  0.076635)
193:   3162.37   0.185821  939.06  0.018337  (-0.098651 -0.074784  0.054883)
194:   3173.02   0.020220  102.18  0.001989  (-0.008518 -0.015458 -0.040952)
195:   3187.99   0.115971  586.07  0.011352  ( 0.021506  0.030629 -0.099757)
196:   3190.59   0.046419  234.59  0.004540  (-0.014104  0.049320  0.043689)
197:   3195.85   0.180200  910.65  0.017596  (-0.025456 -0.053799  0.118547)
198:   3221.39   0.033526  169.43  0.003248  (-0.049460  0.016983  0.022649)
199:   3227.16   0.308284  1557.94  0.029811  ( 0.116598 -0.105687 -0.071034)
200:   3245.50   0.084926  429.18  0.008166  ( 0.031564  0.039238  0.075033)
201:   3259.34   0.059988  303.15  0.005743  (-0.042050 -0.057541 -0.025773)
202:   3262.70   0.044732  226.06  0.004278  (-0.013445 -0.062114  0.015477)
203:   3278.12   0.009304   47.02  0.000886  ( 0.005248  0.002408  0.029195)
204:   3282.94   0.021445  108.37  0.002038  (-0.044914  0.002115  0.004089)
205:   3294.52   0.302591  1529.17  0.028662  (-0.167915 -0.021516  0.001874)
206:   3297.53   0.056272  284.38  0.005325  ( 0.022616 -0.067314 -0.016815)
207:   3332.02   0.180063  909.96  0.016864  (-0.020407 -0.030484 -0.124572)
208:   3343.11   0.096123  485.77  0.008973  (-0.093824 -0.011136 -0.006768)
209:   3348.70   0.071412  360.89  0.006655  ( 0.042917  0.042830  0.054577)
210:   3349.91   0.036724  185.59  0.003421  (-0.016310 -0.006913  0.055742)
211:   3353.93   0.086835  438.83  0.008079  ( 0.020870 -0.079613  0.036134)
212:   3371.50   0.072553  366.65  0.006715  (-0.060776  0.028335  0.047105)
213:   3381.49   0.122662  619.88  0.011320  ( 0.004969 -0.094143  0.049318)
214:   3382.72   0.076941  388.83  0.007098  ( 0.034346 -0.009192  0.076379)
215:   3397.80   0.028261  142.82  0.002596  (-0.010934  0.040008  0.029587)
216:   3403.88   0.052612  265.88  0.004823  (-0.030749 -0.020667  0.058743)
217:   3404.29   0.007786   39.35  0.000714  (-0.001670 -0.025334  0.008313)
218:   3411.44   0.090803  458.88  0.008306  ( 0.058543  0.049103 -0.049678)
219:   3420.79   0.020807  105.15  0.001898  (-0.003677 -0.031864  0.029483)
220:   3431.59   0.059340  299.88  0.005396  (-0.017953 -0.029863 -0.064670)
221:   3438.02   0.027261  137.77  0.002474  ( 0.014100 -0.021955 -0.042351)
222:   3441.38   0.078255  395.47  0.007096  (-0.024957 -0.054662 -0.059037)
223:   3459.04   0.004744   23.98  0.000428  ( 0.009755  0.014834 -0.010621)
224:   3477.43   0.051303  259.27  0.004604  (-0.038444 -0.053051  0.017651)
225:   3479.06   0.031123  157.28  0.002792  ( 0.005057 -0.048168 -0.021116)
226:   3484.18   0.032642  164.96  0.002924  (-0.035110  0.013827 -0.038727)
227:   3519.29   0.059292  299.64  0.005258  ( 0.071144 -0.003140 -0.013648)
228:   3542.81   0.034072  172.19  0.003001  ( 0.007350  0.017054 -0.051539)
229:   3581.49   0.019812  100.12  0.001726  ( 0.033058 -0.025022  0.002718)
230:   3594.85   0.017390   87.88  0.001510  (-0.002340 -0.026854  0.027981)
231:   3658.60   0.001809    9.14  0.000154  (-0.001536  0.011833  0.003454)
232:   3686.10   0.000814    4.11  0.000069  (-0.004679  0.006857  0.000071)
233:   3686.87   0.003361   16.98  0.000284  ( 0.003554 -0.001063 -0.016453)

* The epsilon (eps) is given for a Dirac delta lineshape.
** The dipole moment derivative (T) already includes vibrational overlap.

The first frequency considered to be a vibration is 6
The total number of vibrations considered is 228


--------------------------
THERMOCHEMISTRY AT 298.15K
--------------------------

Temperature         ... 298.15 K
Pressure            ... 1.00 atm
Total Mass          ... 468.39 AMU

Throughout the following assumptions are being made:
  (1) The electronic state is orbitally nondegenerate
  (2) There are no thermally accessible electronically excited states
  (3) Hindered rotations indicated by low frequency modes are not
      treated as such but are treated as vibrations and this may
      cause some error
  (4) All equations used are the standard statistical mechanics
      equations for an ideal gas
  (5) All vibrations are strictly harmonic

freq.      40.82  E(vib)   ...       0.54 
freq.      51.62  E(vib)   ...       0.52 
freq.      57.54  E(vib)   ...       0.51 
freq.      63.32  E(vib)   ...       0.51 
freq.      67.11  E(vib)   ...       0.50 
freq.      70.53  E(vib)   ...       0.50 
freq.      74.28  E(vib)   ...       0.49 
freq.      82.06  E(vib)   ...       0.48 
freq.      83.94  E(vib)   ...       0.48 
freq.      88.23  E(vib)   ...       0.48 
freq.      91.79  E(vib)   ...       0.47 
freq.      95.06  E(vib)   ...       0.47 
freq.      95.89  E(vib)   ...       0.47 
freq.      98.93  E(vib)   ...       0.46 
freq.     104.93  E(vib)   ...       0.46 
freq.     106.15  E(vib)   ...       0.45 
freq.     110.89  E(vib)   ...       0.45 
freq.     115.80  E(vib)   ...       0.44 
freq.     121.08  E(vib)   ...       0.44 
freq.     125.84  E(vib)   ...       0.43 
freq.     130.45  E(vib)   ...       0.43 
freq.     131.64  E(vib)   ...       0.42 
freq.     135.63  E(vib)   ...       0.42 
freq.     140.75  E(vib)   ...       0.41 
freq.     146.77  E(vib)   ...       0.41 
freq.     155.61  E(vib)   ...       0.40 
freq.     162.45  E(vib)   ...       0.39 
freq.     163.00  E(vib)   ...       0.39 
freq.     165.84  E(vib)   ...       0.39 
freq.     172.76  E(vib)   ...       0.38 
freq.     173.86  E(vib)   ...       0.38 
freq.     178.95  E(vib)   ...       0.37 
freq.     182.84  E(vib)   ...       0.37 
freq.     184.84  E(vib)   ...       0.37 
freq.     191.30  E(vib)   ...       0.36 
freq.     195.23  E(vib)   ...       0.36 
freq.     198.74  E(vib)   ...       0.35 
freq.     200.80  E(vib)   ...       0.35 
freq.     204.71  E(vib)   ...       0.35 
freq.     206.20  E(vib)   ...       0.35 
freq.     209.02  E(vib)   ...       0.34 
freq.     213.94  E(vib)   ...       0.34 
freq.     215.57  E(vib)   ...       0.34 
freq.     225.71  E(vib)   ...       0.33 
freq.     229.90  E(vib)   ...       0.32 
freq.     233.39  E(vib)   ...       0.32 
freq.     237.40  E(vib)   ...       0.32 
freq.     243.20  E(vib)   ...       0.31 
freq.     247.25  E(vib)   ...       0.31 
freq.     252.46  E(vib)   ...       0.30 
freq.     254.84  E(vib)   ...       0.30 
freq.     259.50  E(vib)   ...       0.30 
freq.     264.68  E(vib)   ...       0.29 
freq.     271.24  E(vib)   ...       0.29 
freq.     273.41  E(vib)   ...       0.29 
freq.     277.82  E(vib)   ...       0.28 
freq.     280.55  E(vib)   ...       0.28 
freq.     287.99  E(vib)   ...       0.27 
freq.     291.66  E(vib)   ...       0.27 
freq.     294.41  E(vib)   ...       0.27 
freq.     307.70  E(vib)   ...       0.26 
freq.     314.28  E(vib)   ...       0.25 
freq.     316.89  E(vib)   ...       0.25 
freq.     319.50  E(vib)   ...       0.25 
freq.     331.81  E(vib)   ...       0.24 
freq.     332.47  E(vib)   ...       0.24 
freq.     336.05  E(vib)   ...       0.24 
freq.     343.54  E(vib)   ...       0.23 
freq.     347.43  E(vib)   ...       0.23 
freq.     358.03  E(vib)   ...       0.22 
freq.     360.64  E(vib)   ...       0.22 
freq.     367.01  E(vib)   ...       0.22 
freq.     371.60  E(vib)   ...       0.21 
freq.     381.83  E(vib)   ...       0.21 
freq.     387.56  E(vib)   ...       0.20 
freq.     390.13  E(vib)   ...       0.20 
freq.     392.87  E(vib)   ...       0.20 
freq.     402.77  E(vib)   ...       0.19 
freq.     413.95  E(vib)   ...       0.19 
freq.     421.03  E(vib)   ...       0.18 
freq.     431.54  E(vib)   ...       0.18 
freq.     443.47  E(vib)   ...       0.17 
freq.     445.65  E(vib)   ...       0.17 
freq.     458.60  E(vib)   ...       0.16 
freq.     476.75  E(vib)   ...       0.15 
freq.     479.63  E(vib)   ...       0.15 
freq.     498.31  E(vib)   ...       0.14 
freq.     504.31  E(vib)   ...       0.14 
freq.     505.21  E(vib)   ...       0.14 
freq.     512.06  E(vib)   ...       0.14 
freq.     519.65  E(vib)   ...       0.13 
freq.     520.64  E(vib)   ...       0.13 
freq.     537.92  E(vib)   ...       0.12 
freq.     544.70  E(vib)   ...       0.12 
freq.     547.19  E(vib)   ...       0.12 
freq.     549.58  E(vib)   ...       0.12 
freq.     557.40  E(vib)   ...       0.12 
freq.     561.68  E(vib)   ...       0.11 
freq.     571.84  E(vib)   ...       0.11 
freq.     576.08  E(vib)   ...       0.11 
freq.     578.92  E(vib)   ...       0.11 
freq.     587.35  E(vib)   ...       0.10 
freq.     595.97  E(vib)   ...       0.10 
freq.     602.40  E(vib)   ...       0.10 
freq.     605.60  E(vib)   ...       0.10 
freq.     611.40  E(vib)   ...       0.10 
freq.     613.58  E(vib)   ...       0.10 
freq.     621.82  E(vib)   ...       0.09 
freq.     626.53  E(vib)   ...       0.09 
freq.     630.25  E(vib)   ...       0.09 
freq.     635.69  E(vib)   ...       0.09 
freq.     638.35  E(vib)   ...       0.09 
freq.     643.51  E(vib)   ...       0.09 
freq.     648.73  E(vib)   ...       0.08 
freq.     651.27  E(vib)   ...       0.08 
freq.     654.18  E(vib)   ...       0.08 
freq.     666.12  E(vib)   ...       0.08 
freq.     671.49  E(vib)   ...       0.08 
freq.     675.42  E(vib)   ...       0.08 
freq.     677.23  E(vib)   ...       0.08 
freq.     686.21  E(vib)   ...       0.07 
freq.     700.45  E(vib)   ...       0.07 
freq.     700.52  E(vib)   ...       0.07 
freq.     714.35  E(vib)   ...       0.07 
freq.     721.99  E(vib)   ...       0.07 
freq.     734.34  E(vib)   ...       0.06 
freq.     737.91  E(vib)   ...       0.06 
freq.     744.75  E(vib)   ...       0.06 
freq.     747.71  E(vib)   ...       0.06 
freq.     756.27  E(vib)   ...       0.06 
freq.     760.83  E(vib)   ...       0.06 
freq.     764.02  E(vib)   ...       0.06 
freq.     775.55  E(vib)   ...       0.05 
freq.     783.83  E(vib)   ...       0.05 
freq.     788.65  E(vib)   ...       0.05 
freq.     796.62  E(vib)   ...       0.05 
freq.     818.79  E(vib)   ...       0.05 
freq.     831.98  E(vib)   ...       0.04 
freq.     840.02  E(vib)   ...       0.04 
freq.     856.51  E(vib)   ...       0.04 
freq.     859.43  E(vib)   ...       0.04 
freq.     870.68  E(vib)   ...       0.04 
freq.     876.25  E(vib)   ...       0.04 
freq.     887.11  E(vib)   ...       0.04 
freq.     903.80  E(vib)   ...       0.03 
freq.     912.33  E(vib)   ...       0.03 
freq.     915.80  E(vib)   ...       0.03 
freq.     943.34  E(vib)   ...       0.03 
freq.     957.32  E(vib)   ...       0.03 
freq.     979.33  E(vib)   ...       0.03 
freq.    1443.98  E(vib)   ...       0.00 
freq.    1454.06  E(vib)   ...       0.00 
freq.    1478.68  E(vib)   ...       0.00 
freq.    1480.20  E(vib)   ...       0.00 
freq.    1483.42  E(vib)   ...       0.00 
freq.    1494.95  E(vib)   ...       0.00 
freq.    1501.06  E(vib)   ...       0.00 
freq.    1506.55  E(vib)   ...       0.00 
freq.    1507.66  E(vib)   ...       0.00 
freq.    1512.15  E(vib)   ...       0.00 
freq.    1516.42  E(vib)   ...       0.00 
freq.    1519.07  E(vib)   ...       0.00 
freq.    1522.72  E(vib)   ...       0.00 
freq.    1527.37  E(vib)   ...       0.00 
freq.    1527.70  E(vib)   ...       0.00 
freq.    1528.40  E(vib)   ...       0.00 
freq.    1534.73  E(vib)   ...       0.00 
freq.    1540.01  E(vib)   ...       0.00 
freq.    1540.77  E(vib)   ...       0.00 
freq.    1542.11  E(vib)   ...       0.00 
freq.    1545.04  E(vib)   ...       0.00 
freq.    1546.64  E(vib)   ...       0.00 
freq.    1553.02  E(vib)   ...       0.00 
freq.    1555.81  E(vib)   ...       0.00 
freq.    1566.19  E(vib)   ...       0.00 
freq.    1584.77  E(vib)   ...       0.00 
freq.    2957.76  E(vib)   ...       0.00 
freq.    2987.40  E(vib)   ...       0.00 
freq.    3042.09  E(vib)   ...       0.00 
freq.    3049.52  E(vib)   ...       0.00 
freq.    3063.55  E(vib)   ...       0.00 
freq.    3076.81  E(vib)   ...       0.00 
freq.    3116.44  E(vib)   ...       0.00 
freq.    3137.90  E(vib)   ...       0.00 
freq.    3140.20  E(vib)   ...       0.00 
freq.    3141.02  E(vib)   ...       0.00 
freq.    3152.91  E(vib)   ...       0.00 
freq.    3162.37  E(vib)   ...       0.00 
freq.    3173.02  E(vib)   ...       0.00 
freq.    3187.99  E(vib)   ...       0.00 
freq.    3190.59  E(vib)   ...       0.00 
freq.    3195.85  E(vib)   ...       0.00 
freq.    3221.39  E(vib)   ...       0.00 
freq.    3227.16  E(vib)   ...       0.00 
freq.    3245.50  E(vib)   ...       0.00 
freq.    3259.34  E(vib)   ...       0.00 
freq.    3262.70  E(vib)   ...       0.00 
freq.    3278.12  E(vib)   ...       0.00 
freq.    3282.94  E(vib)   ...       0.00 
freq.    3294.52  E(vib)   ...       0.00 
freq.    3297.53  E(vib)   ...       0.00 
freq.    3332.02  E(vib)   ...       0.00 
freq.    3343.11  E(vib)   ...       0.00 
freq.    3348.70  E(vib)   ...       0.00 
freq.    3349.91  E(vib)   ...       0.00 
freq.    3353.93  E(vib)   ...       0.00 
freq.    3371.50  E(vib)   ...       0.00 
freq.    3381.49  E(vib)   ...       0.00 
freq.    3382.72  E(vib)   ...       0.00 
freq.    3397.80  E(vib)   ...       0.00 
freq.    3403.88  E(vib)   ...       0.00 
freq.    3404.29  E(vib)   ...       0.00 
freq.    3411.44  E(vib)   ...       0.00 
freq.    3420.79  E(vib)   ...       0.00 
freq.    3431.59  E(vib)   ...       0.00 
freq.    3438.02  E(vib)   ...       0.00 
freq.    3441.38  E(vib)   ...       0.00 
freq.    3459.04  E(vib)   ...       0.00 
freq.    3477.43  E(vib)   ...       0.00 
freq.    3479.06  E(vib)   ...       0.00 
freq.    3484.18  E(vib)   ...       0.00 
freq.    3519.29  E(vib)   ...       0.00 
freq.    3542.81  E(vib)   ...       0.00 
freq.    3581.49  E(vib)   ...       0.00 
freq.    3594.85  E(vib)   ...       0.00 
freq.    3658.60  E(vib)   ...       0.00 
freq.    3686.10  E(vib)   ...       0.00 
freq.    3686.87  E(vib)   ...       0.00 

------------
INNER ENERGY
------------

The inner energy is: U= E(el) + E(ZPE) + E(vib) + E(rot) + E(trans)
    E(el)   - is the total energy from the electronic structure calculation
              = E(kin-el) + E(nuc-el) + E(el-el) + E(nuc-nuc)
    E(ZPE)  - the the zero temperature vibrational energy from the frequency calculation
    E(vib)  - the the finite temperature correction to E(ZPE) due to population
              of excited vibrational states
    E(rot)  - is the rotational thermal energy
    E(trans)- is the translational thermal energy

Summary of contributions to the inner energy U:
Electronic energy                ...  -1023.44712545 Eh
Zero point energy                ...      0.63040158 Eh     395.58 kcal/mol
Thermal vibrational correction   ...      0.05376342 Eh      33.74 kcal/mol
Thermal rotational correction    ...      0.00141627 Eh       0.89 kcal/mol
Thermal translational correction ...      0.00141627 Eh       0.89 kcal/mol
-----------------------------------------------------------------------
Total thermal energy                  -1022.76012791 Eh


Summary of corrections to the electronic energy:
(perhaps to be used in another calculation)
Total thermal correction                  0.05659596 Eh      35.51 kcal/mol
Non-thermal (ZPE) correction              0.63040158 Eh     395.58 kcal/mol
-----------------------------------------------------------------------
Total correction                          0.68699755 Eh     431.10 kcal/mol


--------
ENTHALPY
--------

The enthalpy is H = U + kB*T
                kB is Boltzmann's constant
Total free energy                 ...  -1022.76012791 Eh 
Thermal Enthalpy correction       ...      0.00094421 Eh       0.59 kcal/mol
-----------------------------------------------------------------------
Total Enthalpy                    ...  -1022.75918370 Eh


Note: Only C1 symmetry has been detected, increase convergence thresholds 
      if your molecule has a higher symmetry. Symmetry factor of 1.0 is   
      used for the rotational entropy correction. 
 

Note: Rotational entropy computed according to Herzberg 
Infrared and Raman Spectra, Chapter V,1, Van Nostrand Reinhold, 1945 
Point Group:  C1, Symmetry Number:   1  
Rotational constants in cm-1:     0.004436     0.002594     0.002213 

Vibrational entropy computed according to the QRRHO of S. Grimme
Chem.Eur.J. 2012 18 9955


-------
ENTROPY
-------

The entropy contributions are T*S = T*(S(el)+S(vib)+S(rot)+S(trans))
     S(el)   - electronic entropy
     S(vib)  - vibrational entropy
     S(rot)  - rotational entropy
     S(trans)- translational entropy
The entropies will be listed as multiplied by the temperature to get
units of energy

Electronic entropy                ...      0.00000000 Eh      0.00 kcal/mol
Vibrational entropy               ...      0.09417098 Eh     59.09 kcal/mol
Rotational entropy                ...      0.01776571 Eh     11.15 kcal/mol
Translational entropy             ...      0.02105815 Eh     13.21 kcal/mol
-----------------------------------------------------------------------
Final entropy term                ...      0.13299484 Eh     83.46 kcal/mol

In case the symmetry of your molecule has not been determined correctly
or in case you have a reason to use a different symmetry number we print 
out the resulting rotational entropy values for sn=1,12 :
 --------------------------------------------------------
|  sn= 1 | S(rot)=       0.01776571 Eh     11.15 kcal/mol|
|  sn= 2 | S(rot)=       0.01711125 Eh     10.74 kcal/mol|
|  sn= 3 | S(rot)=       0.01672842 Eh     10.50 kcal/mol|
|  sn= 4 | S(rot)=       0.01645679 Eh     10.33 kcal/mol|
|  sn= 5 | S(rot)=       0.01624611 Eh     10.19 kcal/mol|
|  sn= 6 | S(rot)=       0.01607396 Eh     10.09 kcal/mol|
|  sn= 7 | S(rot)=       0.01592842 Eh     10.00 kcal/mol|
|  sn= 8 | S(rot)=       0.01580234 Eh      9.92 kcal/mol|
|  sn= 9 | S(rot)=       0.01569113 Eh      9.85 kcal/mol|
|  sn=10 | S(rot)=       0.01559165 Eh      9.78 kcal/mol|
|  sn=11 | S(rot)=       0.01550166 Eh      9.73 kcal/mol|
|  sn=12 | S(rot)=       0.01541951 Eh      9.68 kcal/mol|
 --------------------------------------------------------


-------------------
GIBBS FREE ENERGY
-------------------

The Gibbs free energy is G = H - T*S

Total enthalpy                    ...  -1022.75918370 Eh 
Total entropy correction          ...     -0.13299484 Eh    -83.46 kcal/mol
-----------------------------------------------------------------------
Final Gibbs free energy         ...  -1022.89217854 Eh

For completeness - the Gibbs free energy minus the electronic energy
G-E(el)                           ...      0.55494692 Eh    348.23 kcal/mol



Timings for individual modules:

Sum of individual times         ...      513.652 sec (=   8.561 min)
Numerical frequency calculation ...      494.880 sec (=   8.248 min)  96.3 %
XTB module                      ...        9.618 sec (=   0.160 min)   1.9 %
ONIOM_Small energy and gradient ...        0.429 sec (=   0.007 min)   0.1 %
ONIOM_Large energy and gradient ...        8.725 sec (=   0.145 min)   1.7 %
                             ****ORCA TERMINATED NORMALLY****
TOTAL RUN TIME: 0 days 0 hours 8 minutes 32 seconds 403 msec
