
                                 *****************
                                 * O   R   C   A *
                                 *****************

                                            #,                                       
                                            ###                                      
                                            ####                                     
                                            #####                                    
                                            ######                                   
                                           ########,                                 
                                     ,,################,,,,,                         
                               ,,#################################,,                 
                          ,,##########################################,,             
                       ,#########################################, ''#####,          
                    ,#############################################,,   '####,        
                  ,##################################################,,,,####,       
                ,###########''''           ''''###############################       
              ,#####''   ,,,,##########,,,,          '''####'''          '####       
            ,##' ,,,,###########################,,,                        '##       
           ' ,,###''''                  '''############,,,                           
         ,,##''                                '''############,,,,        ,,,,,,###''
      ,#''                                            '''#######################'''  
     '                                                          ''''####''''         
             ,#######,   #######,   ,#######,      ##                                
            ,#'     '#,  ##    ##  ,#'     '#,    #''#        ######   ,####,        
            ##       ##  ##   ,#'  ##            #'  '#       #        #'  '#        
            ##       ##  #######   ##           ,######,      #####,   #    #        
            '#,     ,#'  ##    ##  '#,     ,#' ,#      #,         ##   #,  ,#        
             '#######'   ##     ##  '#######'  #'      '#     #####' # '####'        



                  #######################################################
                  #                        -***-                        #
                  #          Department of theory and spectroscopy      #
                  #    Directorship and core code : Frank Neese         #
                  #        Max Planck Institute fuer Kohlenforschung    #
                  #                Kaiser Wilhelm Platz 1               #
                  #                 D-45470 Muelheim/Ruhr               #
                  #                      Germany                        #
                  #                                                     #
                  #                  All rights reserved                #
                  #                        -***-                        #
                  #######################################################


                         Program Version 5.0.2 -  RELEASE  -


 With contributions from (in alphabetic order):
   Daniel Aravena         : Magnetic Suceptibility
   Michael Atanasov       : Ab Initio Ligand Field Theory (pilot matlab implementation)
   Alexander A. Auer      : GIAO ZORA, VPT2 properties, NMR spectrum
   Ute Becker             : Parallelization
   Giovanni Bistoni       : ED, misc. LED, open-shell LED, HFLD
   Martin Brehm           : Molecular dynamics
   Dmytro Bykov           : SCF Hessian
   Vijay G. Chilkuri      : MRCI spin determinant printing, contributions to CSF-ICE
   Dipayan Datta          : RHF DLPNO-CCSD density
   Achintya Kumar Dutta   : EOM-CC, STEOM-CC
   Dmitry Ganyushin       : Spin-Orbit,Spin-Spin,Magnetic field MRCI
   Miquel Garcia          : C-PCM and meta-GGA Hessian, CC/C-PCM, Gaussian charge scheme
   Yang Guo               : DLPNO-NEVPT2, F12-NEVPT2, CIM, IAO-localization
   Andreas Hansen         : Spin unrestricted coupled pair/coupled cluster methods
   Benjamin Helmich-Paris : MC-RPA, TRAH-SCF, COSX integrals
   Lee Huntington         : MR-EOM, pCC
   Robert Izsak           : Overlap fitted RIJCOSX, COSX-SCS-MP3, EOM
   Marcus Kettner         : VPT2
   Christian Kollmar      : KDIIS, OOCD, Brueckner-CCSD(T), CCSD density, CASPT2, CASPT2-K
   Simone Kossmann        : Meta GGA functionals, TD-DFT gradient, OOMP2, MP2 Hessian
   Martin Krupicka        : Initial AUTO-CI
   Lucas Lang             : DCDCAS
   Marvin Lechner         : AUTO-CI (C++ implementation), FIC-MRCC
   Dagmar Lenk            : GEPOL surface, SMD
   Dimitrios Liakos       : Extrapolation schemes; Compound Job, initial MDCI parallelization
   Dimitrios Manganas     : Further ROCIS development; embedding schemes
   Dimitrios Pantazis     : SARC Basis sets
   Anastasios Papadopoulos: AUTO-CI, single reference methods and gradients
   Taras Petrenko         : DFT Hessian,TD-DFT gradient, ASA, ECA, R-Raman, ABS, FL, XAS/XES, NRVS
   Peter Pinski           : DLPNO-MP2, DLPNO-MP2 Gradient
   Christoph Reimann      : Effective Core Potentials
   Marius Retegan         : Local ZFS, SOC
   Christoph Riplinger    : Optimizer, TS searches, QM/MM, DLPNO-CCSD(T), (RO)-DLPNO pert. Triples
   Tobias Risthaus        : Range-separated hybrids, TD-DFT gradient, RPA, STAB
   Michael Roemelt        : Original ROCIS implementation
   Masaaki Saitow         : Open-shell DLPNO-CCSD energy and density
   Barbara Sandhoefer     : DKH picture change effects
   Avijit Sen             : IP-ROCIS
   Kantharuban Sivalingam : CASSCF convergence, NEVPT2, FIC-MRCI
   Bernardo de Souza      : ESD, SOC TD-DFT
   Georgi Stoychev        : AutoAux, RI-MP2 NMR, DLPNO-MP2 response
   Willem Van den Heuvel  : Paramagnetic NMR
   Boris Wezisla          : Elementary symmetry handling
   Frank Wennmohs         : Technical directorship


 We gratefully acknowledge several colleagues who have allowed us to
 interface, adapt or use parts of their codes:
   Stefan Grimme, W. Hujo, H. Kruse, P. Pracht,  : VdW corrections, initial TS optimization,
                  C. Bannwarth, S. Ehlert          DFT functionals, gCP, sTDA/sTD-DF
   Ed Valeev, F. Pavosevic, A. Kumar             : LibInt (2-el integral package), F12 methods
   Garnet Chan, S. Sharma, J. Yang, R. Olivares  : DMRG
   Ulf Ekstrom                                   : XCFun DFT Library
   Mihaly Kallay                                 : mrcc  (arbitrary order and MRCC methods)
   Jiri Pittner, Ondrej Demel                    : Mk-CCSD
   Frank Weinhold                                : gennbo (NPA and NBO analysis)
   Christopher J. Cramer and Donald G. Truhlar   : smd solvation model
   Lars Goerigk                                  : TD-DFT with DH, B97 family of functionals
   V. Asgeirsson, H. Jonsson                     : NEB implementation
   FAccTs GmbH                                   : IRC, NEB, NEB-TS, DLPNO-Multilevel, CI-OPT
                                                   MM, QMMM, 2- and 3-layer-ONIOM, Crystal-QMMM,
                                                   LR-CPCM, SF, NACMEs, symmetry and pop. for TD-DFT,
                                                   nearIR, NL-DFT gradient (VV10), updates on ESD,
                                                   ML-optimized integration grids
   S Lehtola, MJT Oliveira, MAL Marques          : LibXC Library
   Liviu Ungur et al                             : ANISO software


 Your calculation uses the libint2 library for the computation of 2-el integrals
 For citations please refer to: http://libint.valeyev.net

 Your ORCA version has been built with support for libXC version: 5.1.0
 For citations please refer to: https://tddft.org/programs/libxc/

 This ORCA versions uses:
   CBLAS   interface :  Fast vector & matrix operations
   LAPACKE interface :  Fast linear algebra routines
   SCALAPACK package :  Parallel linear algebra routines
   Shared memory     :  Shared parallel matrices
   BLAS/LAPACK       :  OpenBLAS 0.3.15  USE64BITINT DYNAMIC_ARCH NO_AFFINITY Haswell SINGLE_THREADED
        Core in use  :  Haswell
   Copyright (c) 2011-2014, The OpenBLAS Project


================================================================================

----- Orbital basis set information -----
Your calculation utilizes the basis: aug-cc-pVTZ 
    H, B-Ne : Obtained from the ccRepo (grant-hill.group.shef.ac.uk/ccrepo) Feb. 2017
              R. A. Kendall, T. H. Dunning, Jr., R. J. Harrison, J. Chem. Phys. 96, 6796 (1992)
         He : Obtained from the ccRepo (grant-hill.group.shef.ac.uk/ccrepo) Feb. 2017
              D. E. Woon, T. H. Dunning, Jr., J. Chem. Phys. 100, 2975 (1994)
  Li-Be, Na : Obtained from the ccRepo (grant-hill.group.shef.ac.uk/ccrepo) Feb. 2017
              B. P. Prascher, D. E. Woon, K. A. Peterson, T. H. Dunning, Jr., A. K. Wilson, Theor. Chem. Acc. 128, 69 (2011)
         Mg : Obtained from the Peterson Research Group Website (tyr0.chem.wsu.edu/~kipeters) Feb. 2017
              B. P. Prascher, D. E. Woon, K. A. Peterson, T. H. Dunning, Jr., A. K. Wilson, Theor. Chem. Acc. 128, 69 (2011)
      Al-Ar : Obtained from the ccRepo (grant-hill.group.shef.ac.uk/ccrepo) Feb. 2017
              D. E. Woon, T. H. Dunning, Jr., J. Chem. Phys. 98, 1358 (1993)
      Sc-Zn : Obtained from the ccRepo (grant-hill.group.shef.ac.uk/ccrepo) Feb. 2017
              N. B. Balabanov, K. A. Peterson, J. Chem. Phys. 123, 064107 (2005)
              N. B. Balabanov, K. A. Peterson, J. Chem. Phys. 125, 074110 (2006)
      Ga-Kr : Obtained from the ccRepo (grant-hill.group.shef.ac.uk/ccrepo) Feb. 2017
              A. K. Wilson, D. E. Woon, K. A. Peterson, T. H. Dunning, Jr., J. Chem. Phys. 110, 7667 (1999)
     Ag, Au : Obtained from the Peterson Research Group Website (tyr0.chem.wsu.edu/~kipeters) Feb. 2017
              K. A. Peterson, C. Puzzarini, Theor. Chem. Acc. 114, 283 (2005)

----- AuxC basis set information -----
Your calculation utilizes the auxiliary basis: aug-cc-pVTZ/C 
  H-He, B-F, Al-Ar, Ga-Kr : Obtained from the EMSL Basis Set Exchange (bse.pnl.gov) Feb. 2017
                            F. Weigend, A. Kohn, C. Hattig, J. Chem. Phys. 116, 3175 (2002)
                   Be, Mg : Obtained from the TURBOMOLE 7.0 basis set library
                            C. Haettig, Phys. Chem. Chem. Phys. 7, 59 (2005)
                       Ne : Obtained from the EMSL Basis Set Exchange (bse.pnl.gov) Feb. 2017
                            C. Haettig, Phys. Chem. Chem. Phys. 7, 59 (2005)
                            F. Weigend, A. Kohn, C. Hattig, J. Chem. Phys. 116, 3175 (2002)
                    Sc-Zn : Obtained from the EMSL Basis Set Exchange (bse.pnl.gov) Feb. 2017
                            J. G. Hill, J. A. Platts, J. Chem. Phys. 128, 044104 (2008)

================================================================================
                                        WARNINGS
                       Please study these warnings very carefully!
================================================================================


WARNING: Post HF methods need fully converged wavefunctions
  ===> : Setting SCFConvForced true
         You can overwrite this default with %scf ConvForced false 


WARNING: MDCI localization with Augmented Hessian Foster-Boys
  ===> : Switching off randomization!

INFO   : the flag for use of the SHARK integral package has been found!

================================================================================

----- Orbital basis set information -----
Your calculation utilizes the basis: aug-cc-pVTZ 
    H, B-Ne : Obtained from the ccRepo (grant-hill.group.shef.ac.uk/ccrepo) Feb. 2017
              R. A. Kendall, T. H. Dunning, Jr., R. J. Harrison, J. Chem. Phys. 96, 6796 (1992)
         He : Obtained from the ccRepo (grant-hill.group.shef.ac.uk/ccrepo) Feb. 2017
              D. E. Woon, T. H. Dunning, Jr., J. Chem. Phys. 100, 2975 (1994)
  Li-Be, Na : Obtained from the ccRepo (grant-hill.group.shef.ac.uk/ccrepo) Feb. 2017
              B. P. Prascher, D. E. Woon, K. A. Peterson, T. H. Dunning, Jr., A. K. Wilson, Theor. Chem. Acc. 128, 69 (2011)
         Mg : Obtained from the Peterson Research Group Website (tyr0.chem.wsu.edu/~kipeters) Feb. 2017
              B. P. Prascher, D. E. Woon, K. A. Peterson, T. H. Dunning, Jr., A. K. Wilson, Theor. Chem. Acc. 128, 69 (2011)
      Al-Ar : Obtained from the ccRepo (grant-hill.group.shef.ac.uk/ccrepo) Feb. 2017
              D. E. Woon, T. H. Dunning, Jr., J. Chem. Phys. 98, 1358 (1993)
      Sc-Zn : Obtained from the ccRepo (grant-hill.group.shef.ac.uk/ccrepo) Feb. 2017
              N. B. Balabanov, K. A. Peterson, J. Chem. Phys. 123, 064107 (2005)
              N. B. Balabanov, K. A. Peterson, J. Chem. Phys. 125, 074110 (2006)
      Ga-Kr : Obtained from the ccRepo (grant-hill.group.shef.ac.uk/ccrepo) Feb. 2017
              A. K. Wilson, D. E. Woon, K. A. Peterson, T. H. Dunning, Jr., J. Chem. Phys. 110, 7667 (1999)
     Ag, Au : Obtained from the Peterson Research Group Website (tyr0.chem.wsu.edu/~kipeters) Feb. 2017
              K. A. Peterson, C. Puzzarini, Theor. Chem. Acc. 114, 283 (2005)

----- AuxC basis set information -----
Your calculation utilizes the auxiliary basis: aug-cc-pVTZ/C 
  H-He, B-F, Al-Ar, Ga-Kr : Obtained from the EMSL Basis Set Exchange (bse.pnl.gov) Feb. 2017
                            F. Weigend, A. Kohn, C. Hattig, J. Chem. Phys. 116, 3175 (2002)
                   Be, Mg : Obtained from the TURBOMOLE 7.0 basis set library
                            C. Haettig, Phys. Chem. Chem. Phys. 7, 59 (2005)
                       Ne : Obtained from the EMSL Basis Set Exchange (bse.pnl.gov) Feb. 2017
                            C. Haettig, Phys. Chem. Chem. Phys. 7, 59 (2005)
                            F. Weigend, A. Kohn, C. Hattig, J. Chem. Phys. 116, 3175 (2002)
                    Sc-Zn : Obtained from the EMSL Basis Set Exchange (bse.pnl.gov) Feb. 2017
                            J. G. Hill, J. A. Platts, J. Chem. Phys. 128, 044104 (2008)

================================================================================
                                        WARNINGS
                       Please study these warnings very carefully!
================================================================================


WARNING: MOInp is set but Guess=PModel. MOInp will be ignored!
         To read the initial guess from a file you must also specify
         'MORead' in the simple input or 'Guess MORead' in the %scf block


WARNING: MDCI localization with Augmented Hessian Foster-Boys
  ===> : Switching off randomization!

INFO   : the flag for use of the SHARK integral package has been found!

================================================================================

----- Orbital basis set information -----
Your calculation utilizes the basis: aug-cc-pVTZ 
    H, B-Ne : Obtained from the ccRepo (grant-hill.group.shef.ac.uk/ccrepo) Feb. 2017
              R. A. Kendall, T. H. Dunning, Jr., R. J. Harrison, J. Chem. Phys. 96, 6796 (1992)
         He : Obtained from the ccRepo (grant-hill.group.shef.ac.uk/ccrepo) Feb. 2017
              D. E. Woon, T. H. Dunning, Jr., J. Chem. Phys. 100, 2975 (1994)
  Li-Be, Na : Obtained from the ccRepo (grant-hill.group.shef.ac.uk/ccrepo) Feb. 2017
              B. P. Prascher, D. E. Woon, K. A. Peterson, T. H. Dunning, Jr., A. K. Wilson, Theor. Chem. Acc. 128, 69 (2011)
         Mg : Obtained from the Peterson Research Group Website (tyr0.chem.wsu.edu/~kipeters) Feb. 2017
              B. P. Prascher, D. E. Woon, K. A. Peterson, T. H. Dunning, Jr., A. K. Wilson, Theor. Chem. Acc. 128, 69 (2011)
      Al-Ar : Obtained from the ccRepo (grant-hill.group.shef.ac.uk/ccrepo) Feb. 2017
              D. E. Woon, T. H. Dunning, Jr., J. Chem. Phys. 98, 1358 (1993)
      Sc-Zn : Obtained from the ccRepo (grant-hill.group.shef.ac.uk/ccrepo) Feb. 2017
              N. B. Balabanov, K. A. Peterson, J. Chem. Phys. 123, 064107 (2005)
              N. B. Balabanov, K. A. Peterson, J. Chem. Phys. 125, 074110 (2006)
      Ga-Kr : Obtained from the ccRepo (grant-hill.group.shef.ac.uk/ccrepo) Feb. 2017
              A. K. Wilson, D. E. Woon, K. A. Peterson, T. H. Dunning, Jr., J. Chem. Phys. 110, 7667 (1999)
     Ag, Au : Obtained from the Peterson Research Group Website (tyr0.chem.wsu.edu/~kipeters) Feb. 2017
              K. A. Peterson, C. Puzzarini, Theor. Chem. Acc. 114, 283 (2005)

----- AuxC basis set information -----
Your calculation utilizes the auxiliary basis: aug-cc-pVTZ/C 
  H-He, B-F, Al-Ar, Ga-Kr : Obtained from the EMSL Basis Set Exchange (bse.pnl.gov) Feb. 2017
                            F. Weigend, A. Kohn, C. Hattig, J. Chem. Phys. 116, 3175 (2002)
                   Be, Mg : Obtained from the TURBOMOLE 7.0 basis set library
                            C. Haettig, Phys. Chem. Chem. Phys. 7, 59 (2005)
                       Ne : Obtained from the EMSL Basis Set Exchange (bse.pnl.gov) Feb. 2017
                            C. Haettig, Phys. Chem. Chem. Phys. 7, 59 (2005)
                            F. Weigend, A. Kohn, C. Hattig, J. Chem. Phys. 116, 3175 (2002)
                    Sc-Zn : Obtained from the EMSL Basis Set Exchange (bse.pnl.gov) Feb. 2017
                            J. G. Hill, J. A. Platts, J. Chem. Phys. 128, 044104 (2008)

================================================================================
                                        WARNINGS
                       Please study these warnings very carefully!
================================================================================


WARNING: MOInp is set but Guess=PModel. MOInp will be ignored!
         To read the initial guess from a file you must also specify
         'MORead' in the simple input or 'Guess MORead' in the %scf block


WARNING: MDCI localization with Augmented Hessian Foster-Boys
  ===> : Switching off randomization!

INFO   : the flag for use of the SHARK integral package has been found!

================================================================================

----- Orbital basis set information -----
Your calculation utilizes the basis: aug-cc-pVTZ 
    H, B-Ne : Obtained from the ccRepo (grant-hill.group.shef.ac.uk/ccrepo) Feb. 2017
              R. A. Kendall, T. H. Dunning, Jr., R. J. Harrison, J. Chem. Phys. 96, 6796 (1992)
         He : Obtained from the ccRepo (grant-hill.group.shef.ac.uk/ccrepo) Feb. 2017
              D. E. Woon, T. H. Dunning, Jr., J. Chem. Phys. 100, 2975 (1994)
  Li-Be, Na : Obtained from the ccRepo (grant-hill.group.shef.ac.uk/ccrepo) Feb. 2017
              B. P. Prascher, D. E. Woon, K. A. Peterson, T. H. Dunning, Jr., A. K. Wilson, Theor. Chem. Acc. 128, 69 (2011)
         Mg : Obtained from the Peterson Research Group Website (tyr0.chem.wsu.edu/~kipeters) Feb. 2017
              B. P. Prascher, D. E. Woon, K. A. Peterson, T. H. Dunning, Jr., A. K. Wilson, Theor. Chem. Acc. 128, 69 (2011)
      Al-Ar : Obtained from the ccRepo (grant-hill.group.shef.ac.uk/ccrepo) Feb. 2017
              D. E. Woon, T. H. Dunning, Jr., J. Chem. Phys. 98, 1358 (1993)
      Sc-Zn : Obtained from the ccRepo (grant-hill.group.shef.ac.uk/ccrepo) Feb. 2017
              N. B. Balabanov, K. A. Peterson, J. Chem. Phys. 123, 064107 (2005)
              N. B. Balabanov, K. A. Peterson, J. Chem. Phys. 125, 074110 (2006)
      Ga-Kr : Obtained from the ccRepo (grant-hill.group.shef.ac.uk/ccrepo) Feb. 2017
              A. K. Wilson, D. E. Woon, K. A. Peterson, T. H. Dunning, Jr., J. Chem. Phys. 110, 7667 (1999)
     Ag, Au : Obtained from the Peterson Research Group Website (tyr0.chem.wsu.edu/~kipeters) Feb. 2017
              K. A. Peterson, C. Puzzarini, Theor. Chem. Acc. 114, 283 (2005)

----- AuxC basis set information -----
Your calculation utilizes the auxiliary basis: aug-cc-pVTZ/C 
  H-He, B-F, Al-Ar, Ga-Kr : Obtained from the EMSL Basis Set Exchange (bse.pnl.gov) Feb. 2017
                            F. Weigend, A. Kohn, C. Hattig, J. Chem. Phys. 116, 3175 (2002)
                   Be, Mg : Obtained from the TURBOMOLE 7.0 basis set library
                            C. Haettig, Phys. Chem. Chem. Phys. 7, 59 (2005)
                       Ne : Obtained from the EMSL Basis Set Exchange (bse.pnl.gov) Feb. 2017
                            C. Haettig, Phys. Chem. Chem. Phys. 7, 59 (2005)
                            F. Weigend, A. Kohn, C. Hattig, J. Chem. Phys. 116, 3175 (2002)
                    Sc-Zn : Obtained from the EMSL Basis Set Exchange (bse.pnl.gov) Feb. 2017
                            J. G. Hill, J. A. Platts, J. Chem. Phys. 128, 044104 (2008)

================================================================================
                                        WARNINGS
                       Please study these warnings very carefully!
================================================================================


WARNING: MOInp is set but Guess=PModel. MOInp will be ignored!
         To read the initial guess from a file you must also specify
         'MORead' in the simple input or 'Guess MORead' in the %scf block


WARNING: MDCI localization with Augmented Hessian Foster-Boys
  ===> : Switching off randomization!

INFO   : the flag for use of the SHARK integral package has been found!

================================================================================

----- Orbital basis set information -----
Your calculation utilizes the basis: aug-cc-pVTZ 
    H, B-Ne : Obtained from the ccRepo (grant-hill.group.shef.ac.uk/ccrepo) Feb. 2017
              R. A. Kendall, T. H. Dunning, Jr., R. J. Harrison, J. Chem. Phys. 96, 6796 (1992)
         He : Obtained from the ccRepo (grant-hill.group.shef.ac.uk/ccrepo) Feb. 2017
              D. E. Woon, T. H. Dunning, Jr., J. Chem. Phys. 100, 2975 (1994)
  Li-Be, Na : Obtained from the ccRepo (grant-hill.group.shef.ac.uk/ccrepo) Feb. 2017
              B. P. Prascher, D. E. Woon, K. A. Peterson, T. H. Dunning, Jr., A. K. Wilson, Theor. Chem. Acc. 128, 69 (2011)
         Mg : Obtained from the Peterson Research Group Website (tyr0.chem.wsu.edu/~kipeters) Feb. 2017
              B. P. Prascher, D. E. Woon, K. A. Peterson, T. H. Dunning, Jr., A. K. Wilson, Theor. Chem. Acc. 128, 69 (2011)
      Al-Ar : Obtained from the ccRepo (grant-hill.group.shef.ac.uk/ccrepo) Feb. 2017
              D. E. Woon, T. H. Dunning, Jr., J. Chem. Phys. 98, 1358 (1993)
      Sc-Zn : Obtained from the ccRepo (grant-hill.group.shef.ac.uk/ccrepo) Feb. 2017
              N. B. Balabanov, K. A. Peterson, J. Chem. Phys. 123, 064107 (2005)
              N. B. Balabanov, K. A. Peterson, J. Chem. Phys. 125, 074110 (2006)
      Ga-Kr : Obtained from the ccRepo (grant-hill.group.shef.ac.uk/ccrepo) Feb. 2017
              A. K. Wilson, D. E. Woon, K. A. Peterson, T. H. Dunning, Jr., J. Chem. Phys. 110, 7667 (1999)
     Ag, Au : Obtained from the Peterson Research Group Website (tyr0.chem.wsu.edu/~kipeters) Feb. 2017
              K. A. Peterson, C. Puzzarini, Theor. Chem. Acc. 114, 283 (2005)

----- AuxC basis set information -----
Your calculation utilizes the auxiliary basis: aug-cc-pVTZ/C 
  H-He, B-F, Al-Ar, Ga-Kr : Obtained from the EMSL Basis Set Exchange (bse.pnl.gov) Feb. 2017
                            F. Weigend, A. Kohn, C. Hattig, J. Chem. Phys. 116, 3175 (2002)
                   Be, Mg : Obtained from the TURBOMOLE 7.0 basis set library
                            C. Haettig, Phys. Chem. Chem. Phys. 7, 59 (2005)
                       Ne : Obtained from the EMSL Basis Set Exchange (bse.pnl.gov) Feb. 2017
                            C. Haettig, Phys. Chem. Chem. Phys. 7, 59 (2005)
                            F. Weigend, A. Kohn, C. Hattig, J. Chem. Phys. 116, 3175 (2002)
                    Sc-Zn : Obtained from the EMSL Basis Set Exchange (bse.pnl.gov) Feb. 2017
                            J. G. Hill, J. A. Platts, J. Chem. Phys. 128, 044104 (2008)

================================================================================
                                        WARNINGS
                       Please study these warnings very carefully!
================================================================================


WARNING: MOInp is set but Guess=PModel. MOInp will be ignored!
         To read the initial guess from a file you must also specify
         'MORead' in the simple input or 'Guess MORead' in the %scf block


WARNING: MDCI localization with Augmented Hessian Foster-Boys
  ===> : Switching off randomization!

INFO   : the flag for use of the SHARK integral package has been found!

================================================================================
                                       INPUT FILE
================================================================================
NAME = CP.inp
|  1> #------------------------------------------------------
|  2> # After the Orca calculation you will get two inter-
|  3> # action energies at the end of the output file. The
|  4> # difference is the negative BSSE.
|  5> #
|  6> # The script will set the orbital guess PModel for 
|  7> # jobs 2-5 since Orca will try to use the .gbw-files of
|  8> # the earlier calculations which does not work for jobs
|  9> # 2 and 3 and does not help for jobs 4 and 5.
| 10> #------------------------------------------------------
| 11> #
| 12> #-------------------------
| 13> #     First the dimer
| 14> #-------------------------
| 15> 
| 16> %id "dimer"
| 17> ! DLPNO-CCSD(T) aug-cc-pVTZ aug-cc-pVTZ/C TightPNO
| 18> %maxcore 2000
| 19> %pal
| 20> nprocs 28
| 21> end
| 22> 
| 23> * xyz 0 1
| 24> H    -2.407565    -3.607078     1.921457 
| 25> O    -2.484443    -4.523313     2.273597 
| 26> H    -1.551625    -4.840246     2.333444 
| 27> H     0.737381    -5.026662     1.947491 
| 28> O     0.187293    -5.133914     2.750237 
| 29> H     0.395529    -6.047162     3.024563 
| 30> H    -2.017578    -8.192353     0.427514 
| 31> O    -1.630159    -7.720139     1.193529 
| 32> H    -2.317993    -7.717041     1.895299 
| 33> H    -5.429419    -5.093063     1.801772 
| 34> O    -4.747175    -5.752587     1.506469 
| 35> H    -3.883659    -5.285360     1.627844 
| 36> H    -5.620404    -8.152245    -0.814749 
| 37> O    -4.949427    -8.218343    -0.097822 
| 38> H    -4.915398    -7.337371     0.304772 
| 39> H    -2.030060    -3.007381     4.626878 
| 40> O    -2.892315    -3.470209     4.729249 
| 41> H    -2.890103    -4.042532     3.932998 
| 42> H    -0.007106    -8.093626     2.452285 
| 43> O     0.785007    -7.885424     2.970947 
| 44> H     1.522449    -8.136330     2.380113 
| 45> H    -3.658605    -3.623263     7.863257 
| 46> O    -3.698968    -2.906001     7.231085 
| 47> H    -3.429221    -3.267822     6.357627 
| 48> C    -3.375202    -7.341924     4.456913 
| 49> O    -3.593181    -7.695302     3.094700 
| 50> H    -2.717725    -8.090539     4.889948 
| 51> H    -4.205413    -7.044456     2.694995 
| 52> H    -2.902424    -6.363710     4.557641 
| 53> H    -4.311388    -7.341429     5.017655 
| 54> *
| 55> 
| 56> #--------------------------
| 57> #   Now the fragments at
| 58> #      dimer-geometry 
| 59> #-------------------------
| 60> 
| 61> $new_job
| 62> %id "fragment"
| 63> %scf guess PModel end
| 64> ! DLPNO-CCSD(T) aug-cc-pVTZ aug-cc-pVTZ/C TightPNO
| 65> %maxcore 2000
| 66> %pal
| 67> nprocs 28
| 68> end
| 69> 
| 70> * xyz 0 1
| 71> H    -2.407565    -3.607078     1.921457 
| 72> O    -2.484443    -4.523313     2.273597 
| 73> H    -1.551625    -4.840246     2.333444 
| 74> H     0.737381    -5.026662     1.947491 
| 75> O     0.187293    -5.133914     2.750237 
| 76> H     0.395529    -6.047162     3.024563 
| 77> H    -2.017578    -8.192353     0.427514 
| 78> O    -1.630159    -7.720139     1.193529 
| 79> H    -2.317993    -7.717041     1.895299 
| 80> H    -5.429419    -5.093063     1.801772 
| 81> O    -4.747175    -5.752587     1.506469 
| 82> H    -3.883659    -5.285360     1.627844 
| 83> H    -5.620404    -8.152245    -0.814749 
| 84> O    -4.949427    -8.218343    -0.097822 
| 85> H    -4.915398    -7.337371     0.304772 
| 86> H    -2.030060    -3.007381     4.626878 
| 87> O    -2.892315    -3.470209     4.729249 
| 88> H    -2.890103    -4.042532     3.932998 
| 89> H    -0.007106    -8.093626     2.452285 
| 90> O     0.785007    -7.885424     2.970947 
| 91> H     1.522449    -8.136330     2.380113 
| 92> H    -3.658605    -3.623263     7.863257 
| 93> O    -3.698968    -2.906001     7.231085 
| 94> H    -3.429221    -3.267822     6.357627 
| 95> *
| 96> 
| 97> $new_job
| 98> %id "fragment"
| 99> %scf guess PModel end
|100> ! DLPNO-CCSD(T) aug-cc-pVTZ aug-cc-pVTZ/C TightPNO
|101> %maxcore 2000
|102> %pal
|103> nprocs 6
|104> end
|105> 
|106> * xyz 0 1
|107> C    -3.375202    -7.341924     4.456913 
|108> O    -3.593181    -7.695302     3.094700 
|109> H    -2.717725    -8.090539     4.889948 
|110> H    -4.205413    -7.044456     2.694995 
|111> H    -2.902424    -6.363710     4.557641 
|112> H    -4.311388    -7.341429     5.017655 
|113> *
|114> 
|115> #--------------------------
|116> #   Now the fragments at
|117> #   dimer-geometry with  
|118> #     the dimer-basis
|119> #-------------------------
|120> 
|121> $new_job
|122> %id "ghost"
|123> %scf guess PModel end
|124> ! DLPNO-CCSD(T) aug-cc-pVTZ aug-cc-pVTZ/C TightPNO
|125> %maxcore 2000
|126> %pal
|127> nprocs 28
|128> end
|129> 
|130> * xyz 0 1
|131> H         -2.407565    -3.607078     1.921457 
|132> O         -2.484443    -4.523313     2.273597 
|133> H         -1.551625    -4.840246     2.333444 
|134> H          0.737381    -5.026662     1.947491 
|135> O          0.187293    -5.133914     2.750237 
|136> H          0.395529    -6.047162     3.024563 
|137> H         -2.017578    -8.192353     0.427514 
|138> O         -1.630159    -7.720139     1.193529 
|139> H         -2.317993    -7.717041     1.895299 
|140> H         -5.429419    -5.093063     1.801772 
|141> O         -4.747175    -5.752587     1.506469 
|142> H         -3.883659    -5.285360     1.627844 
|143> H         -5.620404    -8.152245    -0.814749 
|144> O         -4.949427    -8.218343    -0.097822 
|145> H         -4.915398    -7.337371     0.304772 
|146> H         -2.030060    -3.007381     4.626878 
|147> O         -2.892315    -3.470209     4.729249 
|148> H         -2.890103    -4.042532     3.932998 
|149> H         -0.007106    -8.093626     2.452285 
|150> O          0.785007    -7.885424     2.970947 
|151> H          1.522449    -8.136330     2.380113 
|152> H         -3.658605    -3.623263     7.863257 
|153> O         -3.698968    -2.906001     7.231085 
|154> H         -3.429221    -3.267822     6.357627 
|155> C :       -3.375202    -7.341924     4.456913 
|156> O :       -3.593181    -7.695302     3.094700 
|157> H :       -2.717725    -8.090539     4.889948 
|158> H :       -4.205413    -7.044456     2.694995 
|159> H :       -2.902424    -6.363710     4.557641 
|160> H :       -4.311388    -7.341429     5.017655 
|161> *
|162> 
|163> $new_job
|164> %id "ghost"
|165> %scf guess PModel end
|166> ! DLPNO-CCSD(T) aug-cc-pVTZ aug-cc-pVTZ/C TightPNO
|167> %maxcore 2000
|168> %pal
|169> nprocs 6
|170> end
|171> 
|172> * xyz 0 1
|173> H :       -2.407565    -3.607078     1.921457 
|174> O :       -2.484443    -4.523313     2.273597 
|175> H :       -1.551625    -4.840246     2.333444 
|176> H :        0.737381    -5.026662     1.947491 
|177> O :        0.187293    -5.133914     2.750237 
|178> H :        0.395529    -6.047162     3.024563 
|179> H :       -2.017578    -8.192353     0.427514 
|180> O :       -1.630159    -7.720139     1.193529 
|181> H :       -2.317993    -7.717041     1.895299 
|182> H :       -5.429419    -5.093063     1.801772 
|183> O :       -4.747175    -5.752587     1.506469 
|184> H :       -3.883659    -5.285360     1.627844 
|185> H :       -5.620404    -8.152245    -0.814749 
|186> O :       -4.949427    -8.218343    -0.097822 
|187> H :       -4.915398    -7.337371     0.304772 
|188> H :       -2.030060    -3.007381     4.626878 
|189> O :       -2.892315    -3.470209     4.729249 
|190> H :       -2.890103    -4.042532     3.932998 
|191> H :       -0.007106    -8.093626     2.452285 
|192> O :        0.785007    -7.885424     2.970947 
|193> H :        1.522449    -8.136330     2.380113 
|194> H :       -3.658605    -3.623263     7.863257 
|195> O :       -3.698968    -2.906001     7.231085 
|196> H :       -3.429221    -3.267822     6.357627 
|197> C         -3.375202    -7.341924     4.456913 
|198> O         -3.593181    -7.695302     3.094700 
|199> H         -2.717725    -8.090539     4.889948 
|200> H         -4.205413    -7.044456     2.694995 
|201> H         -2.902424    -6.363710     4.557641 
|202> H         -4.311388    -7.341429     5.017655 
|203> *
|204> 
|205> 
|206>                          ****END OF INPUT****
================================================================================


                 $$$$$$$$$$$$$$$$$$$$$$$$$$$$$$$$$$$$$$$$$$$$$$ 
                 $ THERE ARE  5 JOBS TO BE PROCESSED THIS RUN $
                 $$$$$$$$$$$$$$$$$$$$$$$$$$$$$$$$$$$$$$$$$$$$$$ 




                 $$$$$$$$$$$$$$$$  JOB NUMBER  1 $$$$$$$$$$$$$$


                       ****************************
                       * Single Point Calculation *
                       ****************************

---------------------------------
CARTESIAN COORDINATES (ANGSTROEM)
---------------------------------
  H     -2.407565   -3.607078    1.921457
  O     -2.484443   -4.523313    2.273597
  H     -1.551625   -4.840246    2.333444
  H      0.737381   -5.026662    1.947491
  O      0.187293   -5.133914    2.750237
  H      0.395529   -6.047162    3.024563
  H     -2.017578   -8.192353    0.427514
  O     -1.630159   -7.720139    1.193529
  H     -2.317993   -7.717041    1.895299
  H     -5.429419   -5.093063    1.801772
  O     -4.747175   -5.752587    1.506469
  H     -3.883659   -5.285360    1.627844
  H     -5.620404   -8.152245   -0.814749
  O     -4.949427   -8.218343   -0.097822
  H     -4.915398   -7.337371    0.304772
  H     -2.030060   -3.007381    4.626878
  O     -2.892315   -3.470209    4.729249
  H     -2.890103   -4.042532    3.932998
  H     -0.007106   -8.093626    2.452285
  O      0.785007   -7.885424    2.970947
  H      1.522449   -8.136330    2.380113
  H     -3.658605   -3.623263    7.863257
  O     -3.698968   -2.906001    7.231085
  H     -3.429221   -3.267822    6.357627
  C     -3.375202   -7.341924    4.456913
  O     -3.593181   -7.695302    3.094700
  H     -2.717725   -8.090539    4.889948
  H     -4.205413   -7.044456    2.694995
  H     -2.902424   -6.363710    4.557641
  H     -4.311388   -7.341429    5.017655

----------------------------
CARTESIAN COORDINATES (A.U.)
----------------------------
  NO LB      ZA    FRAG     MASS         X           Y           Z
   0 H     1.0000    0     1.008   -4.549638   -6.816390    3.631028
   1 O     8.0000    0    15.999   -4.694917   -8.547823    4.296476
   2 H     1.0000    0     1.008   -2.932146   -9.146739    4.409570
   3 H     1.0000    0     1.008    1.393448   -9.499015    3.680225
   4 O     8.0000    0    15.999    0.353932   -9.701691    5.197195
   5 H     1.0000    0     1.008    0.747441  -11.427480    5.715596
   6 H     1.0000    0     1.008   -3.812670  -15.481304    0.807884
   7 O     8.0000    0    15.999   -3.080554  -14.588948    2.255443
   8 H     1.0000    0     1.008   -4.380372  -14.583094    3.581596
   9 H     1.0000    0     1.008  -10.260115   -9.624494    3.404856
  10 O     8.0000    0    15.999   -8.970861  -10.870814    2.846814
  11 H     1.0000    0     1.008   -7.339052   -9.987883    3.076179
  12 H     1.0000    0     1.008  -10.621024  -15.405510   -1.539652
  13 O     8.0000    0    15.999   -9.353062  -15.530418   -0.184857
  14 H     1.0000    0     1.008   -9.288756  -13.865622    0.575936
  15 H     1.0000    0     1.008   -3.836257   -5.683126    8.743532
  16 O     8.0000    0    15.999   -5.465683   -6.557745    8.936985
  17 H     1.0000    0     1.008   -5.461503   -7.639278    7.432289
  18 H     1.0000    0     1.008   -0.013428  -15.294737    4.634147
  19 O     8.0000    0    15.999    1.483448  -14.901292    5.614276
  20 H     1.0000    0     1.008    2.877012  -15.375435    4.497762
  21 H     1.0000    0     1.008   -6.913761   -6.846975   14.859402
  22 O     8.0000    0    15.999   -6.990036   -5.491546   13.664770
  23 H     1.0000    0     1.008   -6.480289   -6.175289   12.014174
  24 C     6.0000    0    12.011   -6.378207  -13.874226    8.422345
  25 O     8.0000    0    15.999   -6.790128  -14.542013    5.848135
  26 H     1.0000    0     1.008   -5.135756  -15.288903    9.240663
  27 H     1.0000    0     1.008   -7.947079  -13.312093    5.092802
  28 H     1.0000    0     1.008   -5.484786  -12.025669    8.612693
  29 H     1.0000    0     1.008   -8.147343  -13.873290    9.481994

--------------------------------
INTERNAL COORDINATES (ANGSTROEM)
--------------------------------
 H      0   0   0     0.000000000000     0.00000000     0.00000000
 O      1   0   0     0.984580815225     0.00000000     0.00000000
 H      2   1   0     0.987004362210   104.28274357     0.00000000
 H      3   2   1     2.328789194260   160.84070427   337.84704998
 O      4   3   2     0.979030612271    47.20386146   144.32570912
 H      5   4   3     0.976032220511   102.30301800   122.27157496
 H      3   2   1     3.884108997255    97.70039199   231.03351536
 O      7   3   2     0.979723697571    32.10557026   223.84302414
 H      8   7   3     0.982652706738   106.44536991    86.69581661
 H      2   1   3     3.036464643908   101.23103739   195.97035988
 O     10   2   1     0.993797083876    60.32215617   130.55989123
 H     11  10   2     0.989289059077   104.43843156   350.90071309
 H     11  10   2     3.450933266079   119.18490754   197.89065305
 O     13  11  10     0.984156188550    51.98922981   209.87901607
 H     14  13  11     0.969201509729   105.39583472   355.11607667
 H      1   2   3     2.796685413856    82.18949062   275.01009518
 O     16   1   2     0.983957958579    83.19415032   304.66015274
 H     17  16   1     0.980598880416   100.84041796    24.40899618
 H      8   7   3     2.087644665051   133.83925121   203.34179270
 O     19   8   7     0.969433519029   156.84124020   137.19238756
 H     20  19   8     0.977680591889   103.76103466   262.59280965
 H     17  16   1     3.229958519096   109.33791068   177.04435902
 O     22  17  16     0.956940638701    48.20220725    76.54939106
 H     23  22  17     0.983161613273   107.42691455     3.34864575
 C      9   8   7     2.796474551711   156.81377003   169.36435743
 O     25   9   8     1.424083955634    31.60980365   177.00429520
 H     25   9   8     1.086379185634    92.51590664   297.47675771
 H     26  25   9     0.978873140180   108.74377522   243.00889693
 H     25   9   8     1.091131429785    92.35056791    46.20831141
 H     25   9   8     1.091272680032   142.66206729   172.24107155

---------------------------
INTERNAL COORDINATES (A.U.)
---------------------------
 H      0   0   0     0.000000000000     0.00000000     0.00000000
 O      1   0   0     1.860588097488     0.00000000     0.00000000
 H      2   1   0     1.865167937563   104.28274357     0.00000000
 H      3   2   1     4.400773800786   160.84070427   337.84704998
 O      4   3   2     1.850099733918    47.20386146   144.32570912
 H      5   4   3     1.844433594649   102.30301800   122.27157496
 H      3   2   1     7.339902279112    97.70039199   231.03351536
 O      7   3   2     1.851409475322    32.10557026   223.84302414
 H      8   7   3     1.856944500492   106.44536991    86.69581661
 H      2   1   3     5.738086592320   101.23103739   195.97035988
 O     10   2   1     1.878004321216    60.32215617   130.55989123
 H     11  10   2     1.869485388941   104.43843156   350.90071309
 H     11  10   2     6.521318779327   119.18490754   197.89065305
 O     13  11  10     1.859785669364    51.98922981   209.87901607
 H     14  13  11     1.831525421971   105.39583472   355.11607667
 H      1   2   3     5.284969514920    82.18949062   275.01009518
 O     16   1   2     1.859411069006    83.19415032   304.66015274
 H     17  16   1     1.853063331217   100.84041796    24.40899618
 H      8   7   3     3.945076681887   133.83925121   203.34179270
 O     19   8   7     1.831963856008   156.84124020   137.19238756
 H     20  19   8     1.847548565120   103.76103466   262.59280965
 H     17  16   1     6.103737025017   109.33791068   177.04435902
 O     22  17  16     1.808355733564    48.20220725    76.54939106
 H     23  22  17     1.857906194471   107.42691455     3.34864575
 C      9   8   7     5.284571043214   156.81377003   169.36435743
 O     25   9   8     2.691128667859    31.60980365   177.00429520
 H     25   9   8     2.052959138441    92.51590664   297.47675771
 H     26  25   9     1.849802154791   108.74377522   243.00889693
 H     25   9   8     2.061939578407    92.35056791    46.20831141
 H     25   9   8     2.062206502691   142.66206729   172.24107155

---------------------
BASIS SET INFORMATION
---------------------
There are 3 groups of distinct atoms

 Group   1 Type H   : 6s3p2d contracted to 4s3p2d pattern {3111/111/11}
 Group   2 Type O   : 19s6p3d2f contracted to 5s4p3d2f pattern {88111/3111/111/11}
 Group   3 Type C   : 19s6p3d2f contracted to 5s4p3d2f pattern {88111/3111/111/11}

Atom   0H    basis set group =>   1
Atom   1O    basis set group =>   2
Atom   2H    basis set group =>   1
Atom   3H    basis set group =>   1
Atom   4O    basis set group =>   2
Atom   5H    basis set group =>   1
Atom   6H    basis set group =>   1
Atom   7O    basis set group =>   2
Atom   8H    basis set group =>   1
Atom   9H    basis set group =>   1
Atom  10O    basis set group =>   2
Atom  11H    basis set group =>   1
Atom  12H    basis set group =>   1
Atom  13O    basis set group =>   2
Atom  14H    basis set group =>   1
Atom  15H    basis set group =>   1
Atom  16O    basis set group =>   2
Atom  17H    basis set group =>   1
Atom  18H    basis set group =>   1
Atom  19O    basis set group =>   2
Atom  20H    basis set group =>   1
Atom  21H    basis set group =>   1
Atom  22O    basis set group =>   2
Atom  23H    basis set group =>   1
Atom  24C    basis set group =>   3
Atom  25O    basis set group =>   2
Atom  26H    basis set group =>   1
Atom  27H    basis set group =>   1
Atom  28H    basis set group =>   1
Atom  29H    basis set group =>   1
---------------------------------
AUXILIARY/C BASIS SET INFORMATION
---------------------------------
There are 3 groups of distinct atoms

 Group   1 Type H   : 5s4p3d2f contracted to 5s4p3d2f pattern {11111/1111/111/11}
 Group   2 Type O   : 9s7p6d4f2g contracted to 9s7p6d4f2g pattern {111111111/1111111/111111/1111/11}
 Group   3 Type C   : 9s7p6d4f2g contracted to 9s7p6d4f2g pattern {111111111/1111111/111111/1111/11}

Atom   0H    basis set group =>   1
Atom   1O    basis set group =>   2
Atom   2H    basis set group =>   1
Atom   3H    basis set group =>   1
Atom   4O    basis set group =>   2
Atom   5H    basis set group =>   1
Atom   6H    basis set group =>   1
Atom   7O    basis set group =>   2
Atom   8H    basis set group =>   1
Atom   9H    basis set group =>   1
Atom  10O    basis set group =>   2
Atom  11H    basis set group =>   1
Atom  12H    basis set group =>   1
Atom  13O    basis set group =>   2
Atom  14H    basis set group =>   1
Atom  15H    basis set group =>   1
Atom  16O    basis set group =>   2
Atom  17H    basis set group =>   1
Atom  18H    basis set group =>   1
Atom  19O    basis set group =>   2
Atom  20H    basis set group =>   1
Atom  21H    basis set group =>   1
Atom  22O    basis set group =>   2
Atom  23H    basis set group =>   1
Atom  24C    basis set group =>   3
Atom  25O    basis set group =>   2
Atom  26H    basis set group =>   1
Atom  27H    basis set group =>   1
Atom  28H    basis set group =>   1
Atom  29H    basis set group =>   1


           ************************************************************
           *        Program running with 28 parallel MPI-processes    *
           *              working on a common directory               *
           ************************************************************
------------------------------------------------------------------------------
                           ORCA GTO INTEGRAL CALCULATION
------------------------------------------------------------------------------
------------------------------------------------------------------------------
                   ___                                                        
                  /   \      - P O W E R E D   B Y -                         
                 /     \                                                     
                 |  |  |   _    _      __       _____    __    __             
                 |  |  |  | |  | |    /  \     |  _  \  |  |  /  |          
                  \  \/   | |  | |   /    \    | | | |  |  | /  /          
                 / \  \   | |__| |  /  /\  \   | |_| |  |  |/  /          
                |  |  |   |  __  | /  /__\  \  |    /   |      \           
                |  |  |   | |  | | |   __   |  |    \   |  |\   \          
                \     /   | |  | | |  |  |  |  | |\  \  |  | \   \       
                 \___/    |_|  |_| |__|  |__|  |_| \__\ |__|  \__/        
                                                                              
                      - O R C A' S   B I G   F R I E N D -                    
                                      &                                       
                       - I N T E G R A L  F E E D E R -                       
                                                                              
 v1 FN, 2020, v2 2021                                                         
------------------------------------------------------------------------------


Reading SHARK input file CP.SHARKINP.tmp ... ok
----------------------
SHARK INTEGRAL PACKAGE
----------------------

Number of atoms                             ...     30
Number of basis functions                   ...    980
Number of shells                            ...    380
Maximum angular momentum                    ...      3
Integral batch strategy                     ... SHARK/LIBINT Hybrid
RI-J (if used) integral strategy            ... SPLIT-RIJ (Revised 2003 algorithm where possible)
Printlevel                                  ...      1
Contraction scheme used                     ... PARTIAL GENERAL contraction
Coulomb Range Separation                    ... NOT USED
Exchange Range Separation                   ... NOT USED
Finite Nucleus Model                        ... NOT USED
Auxiliary Coulomb fitting basis             ... NOT available
Auxiliary J/K fitting basis                 ... NOT available
Auxiliary Correlation fitting basis         ... AVAILABLE
   # of basis functions in Aux-C            ...   1980
   # of shells in Aux-C                     ...    560
   Maximum angular momentum in Aux-C        ...      4
Auxiliary 'external' fitting basis          ... NOT available
Integral threshold                          ...     1.000000e-10
Primitive cut-off                           ...     1.000000e-11
Primitive pair pre-selection threshold      ...     1.000000e-11

Calculating pre-screening integrals         ... done (  0.1 sec) Dimension = 380
Calculating pre-screening integrals (ORCA)  ... done (  0.2 sec) Dimension = 320
Organizing shell pair data                  ... done (  0.6 sec)
Shell pair information
Total number of shell pairs                 ...     72390
Shell pairs after pre-screening             ...     52243
Total number of primitive shell pairs       ...     97110
Primitive shell pairs kept                  ...     62887
          la=0 lb=0:  11955 shell pairs
          la=1 lb=0:  14178 shell pairs
          la=1 lb=1:   4200 shell pairs
          la=2 lb=0:   9211 shell pairs
          la=2 lb=1:   5630 shell pairs
          la=2 lb=2:   1949 shell pairs
          la=3 lb=0:   2406 shell pairs
          la=3 lb=1:   1538 shell pairs
          la=3 lb=2:   1029 shell pairs
          la=3 lb=3:    147 shell pairs

Calculating one electron integrals          ... done (  0.1 sec)
Calculating RI/C V-Matrix + Cholesky decomp.... done (  0.4 sec)
Calculating Nuclear repulsion               ... done (  0.0 sec) ENN=    650.615733154512 Eh

SHARK setup successfully completed in   2.4 seconds

Maximum memory used throughout the entire GTOINT-calculation: 67.2 MB


           ************************************************************
           *        Program running with 28 parallel MPI-processes    *
           *              working on a common directory               *
           ************************************************************
-------------------------------------------------------------------------------
                                 ORCA SCF
-------------------------------------------------------------------------------

------------
SCF SETTINGS
------------
Hamiltonian:
 Ab initio Hamiltonian  Method          .... Hartree-Fock(GTOs)


General Settings:
 Integral files         IntName         .... CP
 Hartree-Fock type      HFTyp           .... RHF
 Total Charge           Charge          ....    0
 Multiplicity           Mult            ....    1
 Number of Electrons    NEL             ....   98
 Basis Dimension        Dim             ....  920
 Nuclear Repulsion      ENuc            ....    650.6157331545 Eh

Convergence Acceleration:
 DIIS                   CNVDIIS         .... on
   Start iteration      DIISMaxIt       ....    12
   Startup error        DIISStart       ....  0.200000
   # of expansion vecs  DIISMaxEq       ....     5
   Bias factor          DIISBfac        ....   1.050
   Max. coefficient     DIISMaxC        ....  10.000
 Trust-Rad. Augm. Hess. CNVTRAH         .... auto
   Auto Start mean grad. ratio tolernc. ....  1.125000
   Auto Start start iteration           ....    20
   Auto Start num. interpolation iter.  ....    10
   Max. Number of Micro iterations      ....    16
   Max. Number of Macro iterations      .... Maxiter - #DIIS iter
   Number of Davidson start vectors     ....     2
   Converg. threshold I  (grad. norm)   ....   5.000e-05
   Converg. threshold II (energy diff.) ....   1.000e-06
   Grad. Scal. Fac. for Micro threshold ....   0.100
   Minimum threshold for Micro iter.    ....   0.010
   NR start threshold (gradient norm)   ....   0.001
   Initial trust radius                 ....   0.400
   Minimum AH scaling param. (alpha)    ....   1.000
   Maximum AH scaling param. (alpha)    .... 1000.000
   Orbital update algorithm             .... Taylor
   White noise on init. David. guess    .... on
   Maximum white noise                  ....   0.010
   Quad. conv. algorithm                .... NR
 SOSCF                  CNVSOSCF        .... on
   Start iteration      SOSCFMaxIt      ....   150
   Startup grad/error   SOSCFStart      ....  0.003300
 Level Shifting         CNVShift        .... on
   Level shift para.    LevelShift      ....    0.2500
   Turn off err/grad.   ShiftErr        ....    0.0010
 Zerner damping         CNVZerner       .... off
 Static damping         CNVDamp         .... on
   Fraction old density DampFac         ....    0.7000
   Max. Damping (<1)    DampMax         ....    0.9800
   Min. Damping (>=0)   DampMin         ....    0.0000
   Turn off err/grad.   DampErr         ....    0.1000
 Fernandez-Rico         CNVRico         .... off

SCF Procedure:
 Maximum # iterations   MaxIter         ....   125
 SCF integral mode      SCFMode         .... Direct
   Integral package                     .... SHARK and LIBINT hybrid scheme
 Reset frequency        DirectResetFreq ....    20
 Integral Threshold     Thresh          ....  1.000e-10 Eh
 Primitive CutOff       TCut            ....  1.000e-11 Eh

Convergence Tolerance:
 Convergence Check Mode ConvCheckMode   .... Total+1el-Energy
 Convergence forced     ConvForced      .... 1
 Energy Change          TolE            ....  1.000e-06 Eh
 1-El. energy change                    ....  1.000e-03 Eh
 Orbital Gradient       TolG            ....  5.000e-05
 Orbital Rotation angle TolX            ....  5.000e-05
 DIIS Error             TolErr          ....  1.000e-06


Diagonalization of the overlap matrix:
Smallest eigenvalue                        ... 9.988e-06
Time for diagonalization                   ...    0.266 sec
Threshold for overlap eigenvalues          ... 1.000e-08
Number of eigenvalues below threshold      ... 0
Time for construction of square roots      ...    0.252 sec
Total time needed                          ...    0.524 sec

Time for model grid setup =    0.307 sec

------------------------------
INITIAL GUESS: MODEL POTENTIAL
------------------------------
Loading Hartree-Fock densities                     ... done
Calculating cut-offs                               ... done
Initializing the effective Hamiltonian             ... done
Setting up the integral package (SHARK)            ... done
Starting the Coulomb interaction                   ... done (   0.4 sec)
Reading the grid                                   ... done
Mapping shells                                     ... done
Starting the XC term evaluation                    ... done (   0.1 sec)
Transforming the Hamiltonian                       ... done (   0.2 sec)
Diagonalizing the Hamiltonian                      ... done (   0.2 sec)
Back transforming the eigenvectors                 ... done (   0.1 sec)
Now organizing SCF variables                       ... done
                      ------------------
                      INITIAL GUESS DONE (   1.4 sec)
                      ------------------
--------------
SCF ITERATIONS
--------------
ITER       Energy         Delta-E        Max-DP      RMS-DP      [F,P]     Damp
               ***  Starting incremental Fock matrix formation  ***
  0   -722.8126722919   0.000000000000 0.03197995  0.00036312  0.3893586 0.7000
  1   -723.1197773755  -0.307105083648 0.02423716  0.00025922  0.2273462 0.7000
                               ***Turning on DIIS***
  2   -723.2850206360  -0.165243260455 0.01773567  0.00015955  0.1194479 0.7000
  3   -724.7169440396  -1.431923403645 0.04581702  0.00035484  0.0849077 0.0000
  4   -723.4031376316   1.313806408012 0.00642173  0.00005644  0.0119053 0.0000
  5   -723.5904353026  -0.187297671020 0.00362246  0.00002951  0.0037821 0.0000
                      *** Initiating the SOSCF procedure ***
                           *** Shutting down DIIS ***
                      *** Re-Reading the Fockian *** 
                      *** Removing any level shift *** 
ITER      Energy       Delta-E        Grad      Rot      Max-DP    RMS-DP
  6   -723.59503399  -0.0045986915  0.000389  0.000389  0.001426  0.000013
               *** Restarting incremental Fock matrix formation ***
  7   -723.60869031  -0.0136563137  0.000101  0.000157  0.000447  0.000005
  8   -723.60869731  -0.0000070065  0.000049  0.000132  0.000382  0.000004
  9   -723.60869896  -0.0000016484  0.000022  0.000015  0.000091  0.000001
                  ***Gradient check signals convergence***
              ***Rediagonalizing the Fockian in SOSCF/NRSCF***

               *****************************************************
               *                     SUCCESS                       *
               *           SCF CONVERGED AFTER  10 CYCLES          *
               *****************************************************


----------------
TOTAL SCF ENERGY
----------------

Total Energy       :         -723.60869905 Eh          -19690.39374 eV

Components:
Nuclear Repulsion  :          650.61573315 Eh           17704.15416 eV
Electronic Energy  :        -1374.22443220 Eh          -37394.54790 eV
One Electron Energy:        -2294.78801245 Eh          -62444.35643 eV
Two Electron Energy:          920.56358025 Eh           25049.80853 eV

Virial components:
Potential Energy   :        -1445.91173366 Eh          -39345.25855 eV
Kinetic Energy     :          722.30303461 Eh           19654.86481 eV
Virial Ratio       :            2.00180764


---------------
SCF CONVERGENCE
---------------

  Last Energy change         ...   -8.3763e-08  Tolerance :   1.0000e-06
  Last MAX-Density change    ...    6.6745e-05  Tolerance :   1.0000e-05
  Last RMS-Density change    ...    5.2847e-07  Tolerance :   1.0000e-06
  Last Orbital Gradient      ...    8.0513e-06  Tolerance :   5.0000e-05
  Last Orbital Rotation      ...    7.1481e-06  Tolerance :   5.0000e-05

             **** THE GBW FILE WAS UPDATED (CP.gbw) ****
             **** DENSITY CP.scfp WAS UPDATED ****
             **** ENERGY FILE WAS UPDATED (CP.en.tmp) ****
             **** THE GBW FILE WAS UPDATED (CP.gbw) ****
             **** DENSITY CP.scfp WAS UPDATED ****
----------------
ORBITAL ENERGIES
----------------

  NO   OCC          E(Eh)            E(eV) 
   0   2.0000     -20.606514      -560.7318 
   1   2.0000     -20.587034      -560.2017 
   2   2.0000     -20.582530      -560.0791 
   3   2.0000     -20.577643      -559.9461 
   4   2.0000     -20.568138      -559.6875 
   5   2.0000     -20.557324      -559.3932 
   6   2.0000     -20.547446      -559.1244 
   7   2.0000     -20.546212      -559.0908 
   8   2.0000     -20.516660      -558.2867 
   9   2.0000     -11.270773      -306.6933 
  10   2.0000      -1.396766       -38.0079 
  11   2.0000      -1.369374       -37.2626 
  12   2.0000      -1.367307       -37.2063 
  13   2.0000      -1.354825       -36.8667 
  14   2.0000      -1.354362       -36.8541 
  15   2.0000      -1.349043       -36.7093 
  16   2.0000      -1.323797       -36.0224 
  17   2.0000      -1.322432       -35.9852 
  18   2.0000      -1.298676       -35.3388 
  19   2.0000      -0.927781       -25.2462 
  20   2.0000      -0.756490       -20.5852 
  21   2.0000      -0.738773       -20.1030 
  22   2.0000      -0.730478       -19.8773 
  23   2.0000      -0.720406       -19.6033 
  24   2.0000      -0.717372       -19.5207 
  25   2.0000      -0.708048       -19.2670 
  26   2.0000      -0.699469       -19.0335 
  27   2.0000      -0.688792       -18.7430 
  28   2.0000      -0.683412       -18.5966 
  29   2.0000      -0.647587       -17.6217 
  30   2.0000      -0.621231       -16.9045 
  31   2.0000      -0.618849       -16.8397 
  32   2.0000      -0.610885       -16.6230 
  33   2.0000      -0.604022       -16.4363 
  34   2.0000      -0.597336       -16.2543 
  35   2.0000      -0.586634       -15.9631 
  36   2.0000      -0.562173       -15.2975 
  37   2.0000      -0.558962       -15.2101 
  38   2.0000      -0.545225       -14.8363 
  39   2.0000      -0.537025       -14.6132 
  40   2.0000      -0.527559       -14.3556 
  41   2.0000      -0.526811       -14.3353 
  42   2.0000      -0.517233       -14.0746 
  43   2.0000      -0.508249       -13.8302 
  44   2.0000      -0.496771       -13.5178 
  45   2.0000      -0.491643       -13.3783 
  46   2.0000      -0.488259       -13.2862 
  47   2.0000      -0.462241       -12.5782 
  48   2.0000      -0.453323       -12.3356 
  49   0.0000       0.013877         0.3776 
  50   0.0000       0.025167         0.6848 
  51   0.0000       0.031596         0.8598 
  52   0.0000       0.036827         1.0021 
  53   0.0000       0.043706         1.1893 
  54   0.0000       0.048622         1.3231 
  55   0.0000       0.051001         1.3878 
  56   0.0000       0.057452         1.5634 
  57   0.0000       0.058736         1.5983 
  58   0.0000       0.063803         1.7362 
  59   0.0000       0.073327         1.9953 
  60   0.0000       0.076998         2.0952 
  61   0.0000       0.081841         2.2270 
  62   0.0000       0.087821         2.3897 
  63   0.0000       0.089044         2.4230 
  64   0.0000       0.095925         2.6102 
  65   0.0000       0.097671         2.6578 
  66   0.0000       0.100459         2.7336 
  67   0.0000       0.110175         2.9980 
  68   0.0000       0.112509         3.0615 
  69   0.0000       0.130346         3.5469 
  70   0.0000       0.139650         3.8001 
  71   0.0000       0.144352         3.9280 
  72   0.0000       0.147049         4.0014 
  73   0.0000       0.150421         4.0932 
  74   0.0000       0.154572         4.2061 
  75   0.0000       0.155987         4.2446 
  76   0.0000       0.160548         4.3687 
  77   0.0000       0.166196         4.5224 
  78   0.0000       0.166784         4.5384 
  79   0.0000       0.172318         4.6890 
  80   0.0000       0.173779         4.7288 
  81   0.0000       0.182317         4.9611 
  82   0.0000       0.185184         5.0391 
  83   0.0000       0.192546         5.2394 
  84   0.0000       0.193597         5.2681 
  85   0.0000       0.196242         5.3400 
  86   0.0000       0.201868         5.4931 
  87   0.0000       0.205787         5.5998 
  88   0.0000       0.210777         5.7355 
  89   0.0000       0.213569         5.8115 
  90   0.0000       0.216380         5.8880 
  91   0.0000       0.221488         6.0270 
  92   0.0000       0.224375         6.1056 
  93   0.0000       0.225076         6.1246 
  94   0.0000       0.231500         6.2994 
  95   0.0000       0.231982         6.3126 
  96   0.0000       0.238041         6.4774 
  97   0.0000       0.242634         6.6024 
  98   0.0000       0.247423         6.7327 
  99   0.0000       0.249210         6.7814 
 100   0.0000       0.256508         6.9799 
 101   0.0000       0.261396         7.1129 
 102   0.0000       0.266727         7.2580 
 103   0.0000       0.270548         7.3620 
 104   0.0000       0.271675         7.3927 
 105   0.0000       0.275313         7.4917 
 106   0.0000       0.283824         7.7232 
 107   0.0000       0.288350         7.8464 
 108   0.0000       0.298403         8.1200 
 109   0.0000       0.302885         8.2419 
 110   0.0000       0.309563         8.4236 
 111   0.0000       0.313817         8.5394 
 112   0.0000       0.316185         8.6038 
 113   0.0000       0.317629         8.6431 
 114   0.0000       0.322611         8.7787 
 115   0.0000       0.327808         8.9201 
 116   0.0000       0.328430         8.9370 
 117   0.0000       0.334902         9.1131 
 118   0.0000       0.337828         9.1928 
 119   0.0000       0.342778         9.3275 
 120   0.0000       0.350841         9.5469 
 121   0.0000       0.357964         9.7407 
 122   0.0000       0.361707         9.8426 
 123   0.0000       0.362195         9.8558 
 124   0.0000       0.370885        10.0923 
 125   0.0000       0.373640        10.1672 
 126   0.0000       0.377960        10.2848 
 127   0.0000       0.384851        10.4723 
 128   0.0000       0.385935        10.5018 
 129   0.0000       0.393057        10.6956 
 130   0.0000       0.395436        10.7604 
 131   0.0000       0.397039        10.8040 
 132   0.0000       0.401260        10.9188 
 133   0.0000       0.404032        10.9943 
 134   0.0000       0.406112        11.0509 
 135   0.0000       0.410316        11.1653 
 136   0.0000       0.416458        11.3324 
 137   0.0000       0.418744        11.3946 
 138   0.0000       0.423525        11.5247 
 139   0.0000       0.428221        11.6525 
 140   0.0000       0.431550        11.7431 
 141   0.0000       0.433194        11.7878 
 142   0.0000       0.437962        11.9175 
 143   0.0000       0.440885        11.9971 
 144   0.0000       0.443733        12.0746 
 145   0.0000       0.448670        12.2089 
 146   0.0000       0.450427        12.2567 
 147   0.0000       0.452803        12.3214 
 148   0.0000       0.459899        12.5145 
 149   0.0000       0.462135        12.5753 
 150   0.0000       0.467059        12.7093 
 151   0.0000       0.468644        12.7524 
 152   0.0000       0.469386        12.7726 
 153   0.0000       0.475958        12.9515 
 154   0.0000       0.480412        13.0727 
 155   0.0000       0.482601        13.1322 
 156   0.0000       0.483234        13.1495 
 157   0.0000       0.486042        13.2259 
 158   0.0000       0.489219        13.3123 
 159   0.0000       0.491308        13.3692 
 160   0.0000       0.494034        13.4434 
 161   0.0000       0.498815        13.5735 
 162   0.0000       0.504642        13.7320 
 163   0.0000       0.506334        13.7780 
 164   0.0000       0.511999        13.9322 
 165   0.0000       0.512455        13.9446 
 166   0.0000       0.517873        14.0920 
 167   0.0000       0.519239        14.1292 
 168   0.0000       0.527890        14.3646 
 169   0.0000       0.530567        14.4375 
 170   0.0000       0.532273        14.4839 
 171   0.0000       0.538114        14.6428 
 172   0.0000       0.547066        14.8864 
 173   0.0000       0.551500        15.0071 
 174   0.0000       0.554964        15.1013 
 175   0.0000       0.557866        15.1803 
 176   0.0000       0.565568        15.3899 
 177   0.0000       0.576051        15.6751 
 178   0.0000       0.579085        15.7577 
 179   0.0000       0.580786        15.8040 
 180   0.0000       0.593587        16.1523 
 181   0.0000       0.598649        16.2901 
 182   0.0000       0.601513        16.3680 
 183   0.0000       0.609209        16.5774 
 184   0.0000       0.616267        16.7695 
 185   0.0000       0.619680        16.8624 
 186   0.0000       0.628229        17.0950 
 187   0.0000       0.630346        17.1526 
 188   0.0000       0.642195        17.4750 
 189   0.0000       0.652774        17.7629 
 190   0.0000       0.658622        17.9220 
 191   0.0000       0.666813        18.1449 
 192   0.0000       0.669854        18.2277 
 193   0.0000       0.677500        18.4357 
 194   0.0000       0.683160        18.5897 
 195   0.0000       0.702232        19.1087 
 196   0.0000       0.705855        19.2073 
 197   0.0000       0.711680        19.3658 
 198   0.0000       0.723097        19.6765 
 199   0.0000       0.729730        19.8570 
 200   0.0000       0.736952        20.0535 
 201   0.0000       0.741550        20.1786 
 202   0.0000       0.743610        20.2346 
 203   0.0000       0.748389        20.3647 
 204   0.0000       0.753500        20.5038 
 205   0.0000       0.762788        20.7565 
 206   0.0000       0.764500        20.8031 
 207   0.0000       0.769218        20.9315 
 208   0.0000       0.777237        21.1497 
 209   0.0000       0.785298        21.3690 
 210   0.0000       0.786191        21.3933 
 211   0.0000       0.789957        21.4958 
 212   0.0000       0.792884        21.5755 
 213   0.0000       0.797366        21.6974 
 214   0.0000       0.798861        21.7381 
 215   0.0000       0.802113        21.8266 
 216   0.0000       0.810735        22.0612 
 217   0.0000       0.812041        22.0968 
 218   0.0000       0.817372        22.2418 
 219   0.0000       0.822880        22.3917 
 220   0.0000       0.827454        22.5162 
 221   0.0000       0.838509        22.8170 
 222   0.0000       0.842501        22.9256 
 223   0.0000       0.846368        23.0309 
 224   0.0000       0.847145        23.0520 
 225   0.0000       0.852339        23.1933 
 226   0.0000       0.858651        23.3651 
 227   0.0000       0.860403        23.4128 
 228   0.0000       0.865464        23.5505 
 229   0.0000       0.870739        23.6940 
 230   0.0000       0.879253        23.9257 
 231   0.0000       0.885211        24.0878 
 232   0.0000       0.892296        24.2806 
 233   0.0000       0.895506        24.3679 
 234   0.0000       0.898510        24.4497 
 235   0.0000       0.902957        24.5707 
 236   0.0000       0.910227        24.7685 
 237   0.0000       0.910925        24.7875 
 238   0.0000       0.917186        24.9579 
 239   0.0000       0.920678        25.0529 
 240   0.0000       0.927008        25.2252 
 241   0.0000       0.936142        25.4737 
 242   0.0000       0.938606        25.5408 
 243   0.0000       0.943340        25.6696 
 244   0.0000       0.945478        25.7278 
 245   0.0000       0.947638        25.7865 
 246   0.0000       0.954089        25.9621 
 247   0.0000       0.957769        26.0622 
 248   0.0000       0.960273        26.1304 
 249   0.0000       0.966777        26.3073 
 250   0.0000       0.969839        26.3907 
 251   0.0000       0.976215        26.5642 
 252   0.0000       0.977458        26.5980 
 253   0.0000       0.979950        26.6658 
 254   0.0000       0.985521        26.8174 
 255   0.0000       0.989682        26.9306 
 256   0.0000       0.991860        26.9899 
 257   0.0000       0.992313        27.0022 
 258   0.0000       0.996118        27.1058 
 259   0.0000       1.000626        27.2284 
 260   0.0000       1.006474        27.3875 
 261   0.0000       1.008708        27.4483 
 262   0.0000       1.014657        27.6102 
 263   0.0000       1.019281        27.7360 
 264   0.0000       1.022333        27.8191 
 265   0.0000       1.024061        27.8661 
 266   0.0000       1.025131        27.8952 
 267   0.0000       1.037539        28.2329 
 268   0.0000       1.038511        28.2593 
 269   0.0000       1.043105        28.3843 
 270   0.0000       1.048851        28.5407 
 271   0.0000       1.050714        28.5914 
 272   0.0000       1.056679        28.7537 
 273   0.0000       1.058194        28.7949 
 274   0.0000       1.064663        28.9710 
 275   0.0000       1.068278        29.0693 
 276   0.0000       1.073394        29.2085 
 277   0.0000       1.075217        29.2581 
 278   0.0000       1.082117        29.4459 
 279   0.0000       1.085021        29.5249 
 280   0.0000       1.087731        29.5987 
 281   0.0000       1.092538        29.7295 
 282   0.0000       1.097545        29.8657 
 283   0.0000       1.101851        29.9829 
 284   0.0000       1.104648        30.0590 
 285   0.0000       1.105526        30.0829 
 286   0.0000       1.110684        30.2232 
 287   0.0000       1.112239        30.2656 
 288   0.0000       1.120331        30.4858 
 289   0.0000       1.127669        30.6854 
 290   0.0000       1.134764        30.8785 
 291   0.0000       1.136207        30.9178 
 292   0.0000       1.140252        31.0278 
 293   0.0000       1.141340        31.0574 
 294   0.0000       1.150084        31.2954 
 295   0.0000       1.157210        31.4893 
 296   0.0000       1.164495        31.6875 
 297   0.0000       1.171994        31.8916 
 298   0.0000       1.176209        32.0063 
 299   0.0000       1.183538        32.2057 
 300   0.0000       1.187412        32.3111 
 301   0.0000       1.189109        32.3573 
 302   0.0000       1.199771        32.6474 
 303   0.0000       1.201466        32.6935 
 304   0.0000       1.202847        32.7311 
 305   0.0000       1.205841        32.8126 
 306   0.0000       1.209192        32.9038 
 307   0.0000       1.214368        33.0446 
 308   0.0000       1.222152        33.2564 
 309   0.0000       1.227094        33.3909 
 310   0.0000       1.235304        33.6143 
 311   0.0000       1.243364        33.8337 
 312   0.0000       1.245239        33.8847 
 313   0.0000       1.252561        34.0839 
 314   0.0000       1.259923        34.2842 
 315   0.0000       1.268333        34.5131 
 316   0.0000       1.274336        34.6765 
 317   0.0000       1.277020        34.7495 
 318   0.0000       1.282377        34.8952 
 319   0.0000       1.285053        34.9681 
 320   0.0000       1.289311        35.0839 
 321   0.0000       1.297067        35.2950 
 322   0.0000       1.302895        35.4536 
 323   0.0000       1.303252        35.4633 
 324   0.0000       1.309977        35.6463 
 325   0.0000       1.316129        35.8137 
 326   0.0000       1.324179        36.0328 
 327   0.0000       1.332911        36.2704 
 328   0.0000       1.337646        36.3992 
 329   0.0000       1.343840        36.5678 
 330   0.0000       1.345038        36.6003 
 331   0.0000       1.354400        36.8551 
 332   0.0000       1.355892        36.8957 
 333   0.0000       1.363931        37.1145 
 334   0.0000       1.371755        37.3274 
 335   0.0000       1.374424        37.4000 
 336   0.0000       1.377650        37.4878 
 337   0.0000       1.385012        37.6881 
 338   0.0000       1.387643        37.7597 
 339   0.0000       1.390038        37.8248 
 340   0.0000       1.399696        38.0877 
 341   0.0000       1.403914        38.2024 
 342   0.0000       1.418124        38.5891 
 343   0.0000       1.420201        38.6456 
 344   0.0000       1.436867        39.0991 
 345   0.0000       1.439145        39.1611 
 346   0.0000       1.441657        39.2295 
 347   0.0000       1.450943        39.4822 
 348   0.0000       1.454974        39.5918 
 349   0.0000       1.456596        39.6360 
 350   0.0000       1.460808        39.7506 
 351   0.0000       1.476616        40.1808 
 352   0.0000       1.479318        40.2543 
 353   0.0000       1.484570        40.3972 
 354   0.0000       1.493029        40.6274 
 355   0.0000       1.494333        40.6629 
 356   0.0000       1.509125        41.0654 
 357   0.0000       1.510937        41.1147 
 358   0.0000       1.515695        41.2442 
 359   0.0000       1.522310        41.4242 
 360   0.0000       1.539575        41.8940 
 361   0.0000       1.548112        42.1263 
 362   0.0000       1.555468        42.3264 
 363   0.0000       1.556661        42.3589 
 364   0.0000       1.561353        42.4866 
 365   0.0000       1.562709        42.5235 
 366   0.0000       1.576997        42.9123 
 367   0.0000       1.578745        42.9598 
 368   0.0000       1.581027        43.0219 
 369   0.0000       1.586389        43.1678 
 370   0.0000       1.592825        43.3430 
 371   0.0000       1.600613        43.5549 
 372   0.0000       1.608018        43.7564 
 373   0.0000       1.610938        43.8359 
 374   0.0000       1.616960        43.9997 
 375   0.0000       1.626763        44.2665 
 376   0.0000       1.630581        44.3704 
 377   0.0000       1.634035        44.4643 
 378   0.0000       1.634682        44.4820 
 379   0.0000       1.642954        44.7071 
 380   0.0000       1.647592        44.8333 
 381   0.0000       1.657508        45.1031 
 382   0.0000       1.669500        45.4294 
 383   0.0000       1.681753        45.7628 
 384   0.0000       1.689718        45.9796 
 385   0.0000       1.692840        46.0645 
 386   0.0000       1.694870        46.1198 
 387   0.0000       1.702184        46.3188 
 388   0.0000       1.709727        46.5240 
 389   0.0000       1.711862        46.5821 
 390   0.0000       1.732394        47.1408 
 391   0.0000       1.736175        47.2437 
 392   0.0000       1.742735        47.4222 
 393   0.0000       1.747148        47.5423 
 394   0.0000       1.758806        47.8595 
 395   0.0000       1.762150        47.9505 
 396   0.0000       1.769611        48.1536 
 397   0.0000       1.777109        48.3576 
 398   0.0000       1.782850        48.5138 
 399   0.0000       1.787745        48.6470 
 400   0.0000       1.792693        48.7817 
 401   0.0000       1.799702        48.9724 
 402   0.0000       1.807031        49.1718 
 403   0.0000       1.813889        49.3584 
 404   0.0000       1.818104        49.4731 
 405   0.0000       1.825650        49.6785 
 406   0.0000       1.842365        50.1333 
 407   0.0000       1.847368        50.2694 
 408   0.0000       1.856792        50.5259 
 409   0.0000       1.861189        50.6455 
 410   0.0000       1.873366        50.9769 
 411   0.0000       1.880703        51.1765 
 412   0.0000       1.890573        51.4451 
 413   0.0000       1.898827        51.6697 
 414   0.0000       1.905621        51.8546 
 415   0.0000       1.913415        52.0667 
 416   0.0000       1.924396        52.3655 
 417   0.0000       1.933842        52.6225 
 418   0.0000       1.935281        52.6617 
 419   0.0000       1.944778        52.9201 
 420   0.0000       1.958977        53.3065 
 421   0.0000       1.964514        53.4571 
 422   0.0000       1.976004        53.7698 
 423   0.0000       1.978116        53.8273 
 424   0.0000       1.986413        54.0530 
 425   0.0000       1.993328        54.2412 
 426   0.0000       2.000734        54.4428 
 427   0.0000       2.004257        54.5386 
 428   0.0000       2.012466        54.7620 
 429   0.0000       2.023614        55.0653 
 430   0.0000       2.027465        55.1701 
 431   0.0000       2.032899        55.3180 
 432   0.0000       2.045623        55.6642 
 433   0.0000       2.049715        55.7756 
 434   0.0000       2.059341        56.0375 
 435   0.0000       2.068396        56.2839 
 436   0.0000       2.083330        56.6903 
 437   0.0000       2.094034        56.9816 
 438   0.0000       2.100762        57.1646 
 439   0.0000       2.112628        57.4875 
 440   0.0000       2.127414        57.8899 
 441   0.0000       2.136826        58.1460 
 442   0.0000       2.138714        58.1974 
 443   0.0000       2.149138        58.4810 
 444   0.0000       2.154063        58.6150 
 445   0.0000       2.165281        58.9203 
 446   0.0000       2.169439        59.0334 
 447   0.0000       2.182558        59.3904 
 448   0.0000       2.199038        59.8389 
 449   0.0000       2.204722        59.9935 
 450   0.0000       2.216288        60.3083 
 451   0.0000       2.226117        60.5757 
 452   0.0000       2.237939        60.8974 
 453   0.0000       2.258760        61.4640 
 454   0.0000       2.275061        61.9075 
 455   0.0000       2.283601        62.1399 
 456   0.0000       2.302095        62.6432 
 457   0.0000       2.311962        62.9117 
 458   0.0000       2.333935        63.5096 
 459   0.0000       2.343990        63.7832 
 460   0.0000       2.350823        63.9691 
 461   0.0000       2.356736        64.1300 
 462   0.0000       2.373024        64.5733 
 463   0.0000       2.386736        64.9464 
 464   0.0000       2.403872        65.4127 
 465   0.0000       2.407679        65.5163 
 466   0.0000       2.415761        65.7362 
 467   0.0000       2.435401        66.2706 
 468   0.0000       2.441527        66.4373 
 469   0.0000       2.445444        66.5439 
 470   0.0000       2.457133        66.8620 
 471   0.0000       2.464384        67.0593 
 472   0.0000       2.469352        67.1945 
 473   0.0000       2.487313        67.6832 
 474   0.0000       2.494825        67.8876 
 475   0.0000       2.501582        68.0715 
 476   0.0000       2.504298        68.1454 
 477   0.0000       2.510908        68.3253 
 478   0.0000       2.513257        68.3892 
 479   0.0000       2.519969        68.5718 
 480   0.0000       2.534373        68.9638 
 481   0.0000       2.535915        69.0058 
 482   0.0000       2.548016        69.3350 
 483   0.0000       2.551796        69.4379 
 484   0.0000       2.557920        69.6045 
 485   0.0000       2.567905        69.8763 
 486   0.0000       2.569916        69.9310 
 487   0.0000       2.575776        70.0904 
 488   0.0000       2.582459        70.2723 
 489   0.0000       2.590305        70.4858 
 490   0.0000       2.601410        70.7880 
 491   0.0000       2.607015        70.9405 
 492   0.0000       2.619469        71.2794 
 493   0.0000       2.622657        71.3661 
 494   0.0000       2.628166        71.5160 
 495   0.0000       2.634588        71.6908 
 496   0.0000       2.636934        71.7546 
 497   0.0000       2.645041        71.9752 
 498   0.0000       2.655649        72.2639 
 499   0.0000       2.659771        72.3760 
 500   0.0000       2.673384        72.7465 
 501   0.0000       2.674939        72.7888 
[...]
   TCutCPAO  ...     1.0e-03

--------------------------------
LOCAL RI TRANSFORMATION (IAVPAO)
--------------------------------

Orbital window:       2 to 8
Number of PAOs:     920
Basis functions:    920 (320 shells)
Aux. functions:    1980 (560 shells)
Use SHARK:           on

Processing maps (0.0 sec)
Average map sizes:
   Aux shells -> MOs               3.3
   Aux shells -> PAOs            437.0
   MOs        -> AO shells       307.6
   PAOs       -> AO shells       214.8

Calculating integrals (5.2 sec, 46.393 MB)
Sorting integrals (0.3 sec, 46.382 MB)
Total time for the integral transformation: 5.5 sec
--------------------------------
INITIAL GUESS AND PNO GENERATION
--------------------------------

PNO truncation parameters                   .... 
    ScaleTCutPNO       =        1.000e-02
    PAOOverlapThresh   =        1.000e-08

    TCutPairs          =        1.000e-05
    TCutPNO            =        1.000e-07
    TCutPNOSingles     =        3.000e-09
    TCutMP2Pairs       =        1.000e-06
    TCutMKN            =        1.000e-03
    TCutDO             =        5.000e-03

Pair selection                          .... not used
Type of local MP2 treatment                 .... full local PMP2
Strategy for PNO selection                  .... occupation number selection
Pair density normalization                  .... MP2 norm
Spin component scaling                      .... not used

PASS-1: Formation of initial guess LMP2 amplitudes
Initial amplitudes guess done. Entering LMP2 iteration loop:
   Max. no of iterations          ...  50
   Energy convergence tolerance   ...    1.0e-07
   Residual convergence tolerance ...    5.0e-07
   Fock matrix cutoff             ...    1.0e-05 Eh
   DIIS convergence acceleration parameters:
        Max # vectors in DIIS     ... 7
        Start iteration of DIIS   ... 0
        Levelshift                ... 2.000e-01
        Damping factor 1          ... 5.000e-01
        Damping factor 2          ... 1.000e+00
   L-MP2 PNO cut-off              ...   1.0e-09
   L-MP2 PNO cut-off (core)       ...   1.0e-11
                           *** Turning on DIIS ***
LMP2-Iter=   0:  ELMP2= -0.433915730122  DE=   7.6e-03 RMAX=   4.8e-03
LMP2-Iter=   1:  ELMP2= -0.438029564389  DE=   4.1e-03 RMAX=   2.5e-03
LMP2-Iter=   2:  ELMP2= -0.438661608635  DE=   6.3e-04 RMAX=   4.9e-04
LMP2-Iter=   3:  ELMP2= -0.438738515676  DE=   7.7e-05 RMAX=   1.8e-04
LMP2-Iter=   4:  ELMP2= -0.438743405208  DE=   4.9e-06 RMAX=   2.2e-05
LMP2-Iter=   5:  ELMP2= -0.438743083752  DE=   3.2e-07 RMAX=   7.4e-06
LMP2-Iter=   6:  ELMP2= -0.438743019333  DE=   6.4e-08 RMAX=   8.1e-07
LMP2-Iter=   7:  ELMP2= -0.438743015629  DE=   3.7e-09 RMAX=   1.9e-07
LMP2-Iter=   8:  ELMP2= -0.438743020230  DE=   4.6e-09 RMAX=   2.2e-08 => CONVERGED
PASS-2: Formation of Pair natural orbitals
   .... Finished loop over pairs

 PNO Occupation Number Statistics: 
  | Av. % of trace(Dij) retained        ...  99.940455376423
  | sigma^2 in % of trace(Dij) retained ...   4.55e-03
  | Av. % of trace(Di) retained         ...  99.999642157201
  | sigma^2 in % of trace(Di) retained  ...   1.35e-08
 Distributions of % trace(Dij) recovered:
  |       >= 99.9  ...    19 ( 67.9 % of all pairs)
  |   [99.0, 99.9) ...     9 ( 32.1 % of all pairs)
 Distributions of % trace(Di) recovered :
  |       >= 99.9  ...     7 (100.0 % of all I-pairs )

Making pair pair interaction lists          ... done

                       ===========================
                         28 OF   28 PAIRS ARE KEPT
                       ===========================

Total time spent in the initial guess                 ...    16.531 sec
L-MP2 correlation energy (all non-screened pairs)     ...      -0.438743020230 Eh
L-MP2 PNO error correction                            ...      -0.000002960748 Eh
                                                          --------------------
Initial total L-MP2 energy (non-screened pairs)       ...      -0.438745980978 Eh

Initial PNO correlation energy                        ...      -0.438524911838 Eh
sum of pair energies estimated for screened out pairs ...       0.000000000000 Eh
sum of MP2 pair energies for pairs that were not kept ...       0.000000000000 Eh
sum of PNO error estimates for the kept pairs         ...      -0.000221069140 Eh
                                                          --------------------
sum of all corrections                                         -0.000221069140
Initial total correlation energy                               -0.438745980978
Thresholds for map construction and integral transformation for fine MP2 and CCSD(T) calculation:
   TCutMKN   ...     1.0e-03
   TCutDO    ...     5.0e-03
   TCutPairs ...     1.0e-05
   TCutCMO   ...     1.0e-03
   TCutCPAO  ...     1.0e-03

Time for aux screen maps:            0.011
Time for maps after fine MP2:            0.025
-----------------------------
LOCAL RI TRANSFORMATION (IJV)
-----------------------------

Orbital window:       2 to 8
Basis functions:    920 (320 shells)
Aux. functions:    1980 (560 shells)
Use SHARK:           on

Processing maps (0.0 sec)
Average map sizes:
   Aux shells -> MOs(i)            3.3
   Aux shells -> MOs(j)            3.3
   MOs        -> AO shells       307.6

Calculating integrals (4.8 sec, 0.364 MB)
Sorting integrals (0.0 sec, 0.353 MB)
Total time for the integral transformation: 4.8 sec
--------------------------------
LOCAL RI TRANSFORMATION (VABPAO)
--------------------------------

Number of PAOs:     920
Basis functions:    920 (320 shells)
Aux. functions:    1980 (560 shells)
Use SHARK:           on

Processing maps (0.0 sec)
Average map sizes:
   Aux shells -> PAOs            437.0
   PAOs       -> AO shells       214.8

Calculating integrals (26.5 sec, 6095.909 MB)
Finished


-------------------------------------
Pair Pair Term precalculation with     
RI-(ij|mn) and (im|jn) transformation  
ON THE FLY                             
-------------------------------------

   IBatch   1 (of   1)              ... done (   53.200 sec)
Total EXT                           ...          53.200 sec

---------------------
RI-PNO TRANSFORMATION
---------------------

Total Number of PNOs                   ...  1806
Average number of PNOs per pair        ...    64
Maximal number of PNOs per pair        ...    76
   #pairs with  1 -  5 PNOs   :    0
   #pairs with  6 - 10 PNOs   :    0
   #pairs with 11 - 15 PNOs   :    0
   #pairs with 16 - 20 PNOs   :    0
   #pairs with 21 - 25 PNOs   :    0
   #pairs with 26 - 30 PNOs   :    0
   #pairs with 31 - 35 PNOs   :    0
   #pairs with 36 - 40 PNOs   :    0
   #pairs with 41 - 45 PNOs   :    0
   #pairs with 46 - 50 PNOs   :    0
   #pairs with 51 - 55 PNOs   :    2
   #pairs with 56 - 60 PNOs   :    9
   #pairs with 61 - 65 PNOs   :    4
   #pairs with 66 - 70 PNOs   :    6
   #pairs with 71 - 75 PNOs   :    6
   #pairs with 76 - 80 PNOs   :    1

Generation of (ij|ab)[P] integrals            ... on
Generation of (ia|bc)[P],(ja|bc)[P] integrals ... on
Storage of 3 and 4 external integrals         ... on
Generation of ALL (ka|bc)[P] integrals        ... on
Keep RI integrals in memory                   ... off

Ibatch:  1 (of  1)
Starting 2-4 index PNO integral generation ... done

Timings:
Total PNO integral transformation time     ...         43.394 sec
Size of the 3-external file                ...        60 MB
Size of the 4-external file                ...       512 MB
Size of the IKJL file                      ...         0 MB
Size of the all 3-external file            ...       211 MB
Size of the 1-external file                ...         0 MB

Making pair/pair overlap matrices          ... done (    1.748 sec)
Size of the pair overlap file              ... 24 MB
Redoing the guess amplitudes               ... done (    0.005 sec)

-------------------------
FINAL STARTUP INFORMATION
-------------------------

E(0)                                       ...   -115.091182732
E(L-MP2)                                   ...     -0.438745981
E(L-MP2) including corrections             ...     -0.438745981
Initial E(tot)                             ...   -115.529928713
<T|T>                                      ...      0.105738560
Number of pairs included                   ... 28
Total number of pairs                      ... 28

------------------------------------------------
                  RHF COUPLED CLUSTER ITERATIONS
------------------------------------------------

Number of PNO amplitudes to be optimized   ...       117934
Number of non-PNO amplitudes               ...     23237788
Untruncated number of regular amplitudes   ...     23237788

Iter       E(tot)           E(Corr)          Delta-E          Residual     Time
  0   -115.517398770     -0.425994969      0.012751012      0.015072683    6.83
                           *** Turning on DIIS ***
  1   -115.533628318     -0.442224517     -0.016229548      0.007757763    6.83
  2   -115.544761289     -0.453357488     -0.011132971      0.002172350    6.91
  3   -115.546901116     -0.455497315     -0.002139827      0.001202154    6.81
  4   -115.547409590     -0.456005789     -0.000508474      0.000366007    6.81
  5   -115.547517486     -0.456113685     -0.000107896      0.000132369    6.86
  6   -115.547538829     -0.456135028     -0.000021343      0.000054479    6.88
  7   -115.547540763     -0.456136962     -0.000001934      0.000021447    6.76
               --- The Coupled-Cluster iterations have converged ---

----------------------
COUPLED CLUSTER ENERGY
----------------------

E(0)                                       ...   -115.091182732
E(CORR)(strong-pairs)                      ...     -0.456136962
E(CORR)(weak-pairs)                        ...     -0.000221069
E(CORR)(corrected)                         ...     -0.456358031
E(TOT)                                     ...   -115.547540763
Singles Norm <S|S>**1/2                    ...      0.036045057  
T1 diagnostic                              ...      0.009633447  

------------------
LARGEST AMPLITUDES
------------------
   6->  9   6->  9       0.040233
   5->  9   5->  9       0.034362
   8->  9   8->  9       0.032678
   7->  9   7->  9       0.032518
   4->  9   4->  9       0.032478
   5-> 17   5-> 17       0.026381
   6-> 17   6->  9       0.025533
   6->  9   6-> 17       0.025533
   7-> 16   7-> 16       0.024788
   5->  9   5-> 17       0.024209
   5-> 17   5->  9       0.024209
   7-> 13   7-> 13       0.023186
   5-> 13   5-> 13       0.022878
   8-> 13   8-> 13       0.022706
   7-> 16   7->  9       0.022382
   7->  9   7-> 16       0.022382


-------------------------------------------
DLPNO BASED TRIPLES CORRECTION
-------------------------------------------

Singles multiplier          ...  1.000000
TCutTNO                     ... 1.000e-09
TCutMP2Pairs                ... 1.000e-06
TCutDOStrong                ... 1.000e-02
TCutMKNStrong               ... 1.000e-02
TCutDOWeak                  ... 2.000e-02
TCutMKNWeak                 ... 1.000e-01

Fragment selection                          .... not used
Fock matrix occ-virt block is zero --> Setting DT_in_Triples to false.
Number of Triples that are to be computed   ...        77

 . . . . . . . . .
10% done  
20% done  
30% done  
40% done  
50% done  
60% done  
70% done  
80% done  
90% done               (     71.020 sec)
Triples timings:
Total time for T0               ...    79.438 sec
Total time for Iterative (T)    ...     0.000 sec
Total time of overall (T)       ...    79.438 sec

Triples List generation         ...     0.000 sec
TNO generation                  ...     8.389 sec
Pair density generation         ...     0.001 sec
Look up tables                  ...     0.000 sec
Generating 3-index integrals    ...    62.777 sec
  Make 4-ind.int. from 3-ind.int...     2.934 sec
  Projecting amplitudes (D + S) ...     2.179 sec
  Downprojecting integrals      ...     0.000 sec
  Energy contr. (sum over a,b,c)...     0.589 sec
Fitting ET(->0)                 ...     0.000 sec

Everything after 3-index        ...     8.243 sec

Timing details:
 TNO integrals                  ...    65.426 sec
   Reading 3-index integrals    ...     1.599 sec
   Sorting integrals            ...     7.578 sec
       Sorting integrals 1      ...     0.000 sec
       Sorting integrals 2      ...     6.407 sec
       Sorting integrals 3      ...     0.075 sec
       Sorting integrals 4      ...     0.001 sec
       Sorting integrals 5      ...     0.018 sec
       Sorting integrals 6      ...     1.078 sec
   Calculating local VM**-1/2   ...     0.052 sec
   Orthogonal. integrals        ...     0.120 sec
   Multipl. 3-index integrals   ...    56.077 sec
   All concerning IRIab (w/TNO) ...     1.560 sec

 Calculate W0/W1                ...     2.505 sec
 W 3-ext contribution           ...     1.793 sec
 W 3-int contribution           ...     0.167 sec
 Sorting W                      ...     0.484 sec

 V exchange contribution        ...     0.191 sec

 Timings for Triples without generation
     of 3-index integrals       ...     8.243 sec
       0 weak pairs             ...     8.243 sec
       1 weak pair              ...     0.000 sec
       2 weak pairs             ...     0.000 sec
       3 weak pairs             ...     0.000 sec
  Extra time for extrapolation  ...     0.000 sec

Number of Triples   (0, 1, 2, 3 weak pairs; overall):     77       0       0       0  (    77)
Number of Atoms     (0, 1, 2, 3 weak pairs; overall):   24.0     0.0     0.0     0.0  (    30)
Number of PAOs      (0, 1, 2, 3 weak pairs; overall):  745.9     0.0     0.0     0.0  (   920)
Number of AuxFcns   (0, 1, 2, 3 weak pairs; overall):  402.6     0.0     0.0     0.0  (  1980)
Number of TNOs      (0, 1, 2, 3 weak pairs         ):  121.7     0.0     0.0     0.0
Aver. Number of NTNO, Atoms, PAOs, AuxFcns / Triples:     77   121.7    24.0   745.9   402.6

Triples Correction (T)                     ...     -0.015435283
Final correlation energy                   ...     -0.471793315
E(CCSD)                                    ...   -115.547540763
E(CCSD(T))                                 ...   -115.562976046



--------------------------------------------------------------------------------
                                    TIMINGS
--------------------------------------------------------------------------------


Total execution time                   ...      553.329 sec

Localization of occupied MO's          ...        1.178 sec (  0.2%)
Fock Matrix Formation                  ...      247.376 sec ( 44.7%)
Global overlap, Fock, MKN matrices     ...        1.773 sec (  0.3%)
Differential overlap integrals         ...        2.616 sec (  0.5%)
Organizing maps                        ...        0.066 sec (  0.0%)
RI 3-index integral generations        ...       40.067 sec (  7.2%)
RI-PNO integral transformation         ...      104.571 sec ( 18.9%)
Initial Guess                          ...       21.017 sec (  3.8%)
DIIS Solver                            ...        1.340 sec (  0.2%)
State Vector Update                    ...        0.004 sec (  0.0%)
Sigma-vector construction              ...       54.347 sec (  9.8%)
  <D|H|D>(0-ext)                       ...        0.457 sec (  0.8% of sigma)
  <D|H|D>(2-ext Fock)                  ...        0.005 sec (  0.0% of sigma)
  <D|H|D>(2-ext)                       ...        7.917 sec ( 14.6% of sigma)
  <D|H|D>(4-ext)                       ...        9.510 sec ( 17.5% of sigma)
  <D|H|D>(4-ext-corr)                  ...       28.598 sec ( 52.6% of sigma)
  CCSD doubles correction              ...        0.115 sec (  0.2% of sigma)
  <S|H|S>                              ...        1.670 sec (  3.1% of sigma)
  <S|H|D>(1-ext)                       ...        0.058 sec (  0.1% of sigma)
  <D|H|S>(1-ext)                       ...        0.001 sec (  0.0% of sigma)
  <S|H|D>(3-ext)                       ...        0.165 sec (  0.3% of sigma)
  Fock-dressing                        ...        2.552 sec (  4.7% of sigma)
  Singles amplitudes                   ...        0.242 sec (  0.4% of sigma)
  (ik|jl)-dressing                     ...        0.686 sec (  1.3% of sigma)
  (ij|ab),(ia|jb)-dressing             ...        1.548 sec (  2.8% of sigma)
  Pair energies                        ...        0.004 sec (  0.0% of sigma)
Total Time for computing (T)           ...       79.439 sec ( 14.4% of ALL)


Maximum memory used throughout the entire MDCI-calculation: 1809.0 MB

-------------------------   --------------------
FINAL SINGLE POINT ENERGY      -115.562976046248
-------------------------   --------------------


                            ***************************************
                            *     ORCA property calculations      *
                            ***************************************


  WARNING: The energy has been calculated at the MDCI level but the densities
           used in the property calculations are still SCF densities
           MDCI response densities have not been calculated 
           use %mdci Density linearized end
           or  %mdci Density unrelaxed end
           or  %mdci Density orbopt end

                                    ---------------------
                                    Active property flags
                                    ---------------------
   (+) Dipole Moment


------------------------------------------------------------------------------
                       ORCA ELECTRIC PROPERTIES CALCULATION
------------------------------------------------------------------------------

Dipole Moment Calculation                       ... on
Quadrupole Moment Calculation                   ... off
Polarizability Calculation                      ... off
GBWName                                         ... CP_job5.gbw
Electron density                                ... CP_job5.scfp
The origin for moment calculation is the CENTER OF MASS  = (-6.621702, -14.176298  7.097331)

-------------
DIPOLE MOMENT
-------------
                                X             Y             Z
Electronic contribution:     -0.17026      -0.53698      -1.65151
Nuclear contribution   :     -0.11459       1.09195       1.99535
                        -----------------------------------------
Total Dipole Moment    :     -0.28484       0.55498       0.34384
                        -----------------------------------------
Magnitude (a.u.)       :      0.71229
Magnitude (Debye)      :      1.81050



--------------------
Rotational spectrum 
--------------------
 
Rotational constants in cm-1:     4.273982     0.822705     0.793045 
Rotational constants in MHz : 128130.765104 24664.067910 23774.885920 

 Dipole components along the rotational axes: 
x,y,z [a.u.] :     0.390162     0.595924     0.002746 
x,y,z [Debye]:     0.991714     1.514718     0.006980 

 

Timings for individual modules:

Sum of individual times         ...     1804.068 sec (=  30.068 min)
GTO integral calculation        ...        3.178 sec (=   0.053 min)   0.2 %
SCF iterations                  ...     1245.784 sec (=  20.763 min)  69.1 %
MDCI module                     ...      555.106 sec (=   9.252 min)  30.8 %

Energy for            dimer from job 1  =   -726.381458109
Energy for         fragment from job 2  =   -610.798143288
Energy for         fragment from job 3  =   -115.561637927
Energy for            ghost from job 4  =   -610.799717024
Energy for            ghost from job 5  =   -115.562976046


Energy for fragment            dimer:   -726.381458109 Eh
Energy for fragment         fragment:   -726.359781215 Eh   13.602 kcal/mol
Energy for fragment            ghost:   -726.362693070 Eh   11.775 kcal/mol

----------------------------
REACTION ENERGIES (kcal/mol)  13.602  11.775 
----------------------------

                             ****ORCA TERMINATED NORMALLY****
TOTAL RUN TIME: 0 days 4 hours 57 minutes 10 seconds 237 msec
