
                                 *****************
                                 * O   R   C   A *
                                 *****************

                                            #,                                       
                                            ###                                      
                                            ####                                     
                                            #####                                    
                                            ######                                   
                                           ########,                                 
                                     ,,################,,,,,                         
                               ,,#################################,,                 
                          ,,##########################################,,             
                       ,#########################################, ''#####,          
                    ,#############################################,,   '####,        
                  ,##################################################,,,,####,       
                ,###########''''           ''''###############################       
              ,#####''   ,,,,##########,,,,          '''####'''          '####       
            ,##' ,,,,###########################,,,                        '##       
           ' ,,###''''                  '''############,,,                           
         ,,##''                                '''############,,,,        ,,,,,,###''
      ,#''                                            '''#######################'''  
     '                                                          ''''####''''         
             ,#######,   #######,   ,#######,      ##                                
            ,#'     '#,  ##    ##  ,#'     '#,    #''#        ######   ,####,        
            ##       ##  ##   ,#'  ##            #'  '#       #        #'  '#        
            ##       ##  #######   ##           ,######,      #####,   #    #        
            '#,     ,#'  ##    ##  '#,     ,#' ,#      #,         ##   #,  ,#        
             '#######'   ##     ##  '#######'  #'      '#     #####' # '####'        



                  #######################################################
                  #                        -***-                        #
                  #          Department of theory and spectroscopy      #
                  #    Directorship and core code : Frank Neese         #
                  #        Max Planck Institute fuer Kohlenforschung    #
                  #                Kaiser Wilhelm Platz 1               #
                  #                 D-45470 Muelheim/Ruhr               #
                  #                      Germany                        #
                  #                                                     #
                  #                  All rights reserved                #
                  #                        -***-                        #
                  #######################################################


                         Program Version 5.0.1 -  RELEASE  -


 With contributions from (in alphabetic order):
   Daniel Aravena         : Magnetic Suceptibility
   Michael Atanasov       : Ab Initio Ligand Field Theory (pilot matlab implementation)
   Alexander A. Auer      : GIAO ZORA, VPT2 properties, NMR spectrum
   Ute Becker             : Parallelization
   Giovanni Bistoni       : ED, misc. LED, open-shell LED, HFLD
   Martin Brehm           : Molecular dynamics
   Dmytro Bykov           : SCF Hessian
   Vijay G. Chilkuri      : MRCI spin determinant printing, contributions to CSF-ICE
   Dipayan Datta          : RHF DLPNO-CCSD density
   Achintya Kumar Dutta   : EOM-CC, STEOM-CC
   Dmitry Ganyushin       : Spin-Orbit,Spin-Spin,Magnetic field MRCI
   Miquel Garcia          : C-PCM and meta-GGA Hessian, CC/C-PCM, Gaussian charge scheme
   Yang Guo               : DLPNO-NEVPT2, F12-NEVPT2, CIM, IAO-localization
   Andreas Hansen         : Spin unrestricted coupled pair/coupled cluster methods
   Benjamin Helmich-Paris : MC-RPA, TRAH-SCF, COSX integrals
   Lee Huntington         : MR-EOM, pCC
   Robert Izsak           : Overlap fitted RIJCOSX, COSX-SCS-MP3, EOM
   Marcus Kettner         : VPT2
   Christian Kollmar      : KDIIS, OOCD, Brueckner-CCSD(T), CCSD density, CASPT2, CASPT2-K
   Simone Kossmann        : Meta GGA functionals, TD-DFT gradient, OOMP2, MP2 Hessian
   Martin Krupicka        : Initial AUTO-CI
   Lucas Lang             : DCDCAS
   Marvin Lechner         : AUTO-CI (C++ implementation), FIC-MRCC
   Dagmar Lenk            : GEPOL surface, SMD
   Dimitrios Liakos       : Extrapolation schemes; Compound Job, initial MDCI parallelization
   Dimitrios Manganas     : Further ROCIS development; embedding schemes
   Dimitrios Pantazis     : SARC Basis sets
   Anastasios Papadopoulos: AUTO-CI, single reference methods and gradients
   Taras Petrenko         : DFT Hessian,TD-DFT gradient, ASA, ECA, R-Raman, ABS, FL, XAS/XES, NRVS
   Peter Pinski           : DLPNO-MP2, DLPNO-MP2 Gradient
   Christoph Reimann      : Effective Core Potentials
   Marius Retegan         : Local ZFS, SOC
   Christoph Riplinger    : Optimizer, TS searches, QM/MM, DLPNO-CCSD(T), (RO)-DLPNO pert. Triples
   Tobias Risthaus        : Range-separated hybrids, TD-DFT gradient, RPA, STAB
   Michael Roemelt        : Original ROCIS implementation
   Masaaki Saitow         : Open-shell DLPNO-CCSD energy and density
   Barbara Sandhoefer     : DKH picture change effects
   Avijit Sen             : IP-ROCIS
   Kantharuban Sivalingam : CASSCF convergence, NEVPT2, FIC-MRCI
   Bernardo de Souza      : ESD, SOC TD-DFT
   Georgi Stoychev        : AutoAux, RI-MP2 NMR, DLPNO-MP2 response
   Willem Van den Heuvel  : Paramagnetic NMR
   Boris Wezisla          : Elementary symmetry handling
   Frank Wennmohs         : Technical directorship


 We gratefully acknowledge several colleagues who have allowed us to
 interface, adapt or use parts of their codes:
   Stefan Grimme, W. Hujo, H. Kruse, P. Pracht,  : VdW corrections, initial TS optimization,
                  C. Bannwarth, S. Ehlert          DFT functionals, gCP, sTDA/sTD-DF
   Ed Valeev, F. Pavosevic, A. Kumar             : LibInt (2-el integral package), F12 methods
   Garnet Chan, S. Sharma, J. Yang, R. Olivares  : DMRG
   Ulf Ekstrom                                   : XCFun DFT Library
   Mihaly Kallay                                 : mrcc  (arbitrary order and MRCC methods)
   Jiri Pittner, Ondrej Demel                    : Mk-CCSD
   Frank Weinhold                                : gennbo (NPA and NBO analysis)
   Christopher J. Cramer and Donald G. Truhlar   : smd solvation model
   Lars Goerigk                                  : TD-DFT with DH, B97 family of functionals
   V. Asgeirsson, H. Jonsson                     : NEB implementation
   FAccTs GmbH                                   : IRC, NEB, NEB-TS, DLPNO-Multilevel, CI-OPT
                                                   MM, QMMM, 2- and 3-layer-ONIOM, Crystal-QMMM,
                                                   LR-CPCM, SF, NACMEs, symmetry and pop. for TD-DFT,
                                                   nearIR, NL-DFT gradient (VV10), updates on ESD,
                                                   ML-optimized integration grids
   S Lehtola, MJT Oliveira, MAL Marques          : LibXC Library
   Liviu Ungur et al                             : ANISO software


 Your calculation uses the libint2 library for the computation of 2-el integrals
 For citations please refer to: http://libint.valeyev.net

 Your ORCA version has been built with support for libXC version: 5.1.0
 For citations please refer to: https://tddft.org/programs/libxc/

 This ORCA versions uses:
   CBLAS   interface :  Fast vector & matrix operations
   LAPACKE interface :  Fast linear algebra routines
   SCALAPACK package :  Parallel linear algebra routines
   Shared memory     :  Shared parallel matrices
   BLAS/LAPACK       :  OpenBLAS 0.3.15  USE64BITINT DYNAMIC_ARCH NO_AFFINITY Haswell SINGLE_THREADED
        Core in use  :  Haswell
   Copyright (c) 2011-2014, The OpenBLAS Project


================================================================================

----- Orbital basis set information -----
Your calculation utilizes the basis: aug-cc-pVTZ 
    H, B-Ne : Obtained from the ccRepo (grant-hill.group.shef.ac.uk/ccrepo) Feb. 2017
              R. A. Kendall, T. H. Dunning, Jr., R. J. Harrison, J. Chem. Phys. 96, 6796 (1992)
         He : Obtained from the ccRepo (grant-hill.group.shef.ac.uk/ccrepo) Feb. 2017
              D. E. Woon, T. H. Dunning, Jr., J. Chem. Phys. 100, 2975 (1994)
  Li-Be, Na : Obtained from the ccRepo (grant-hill.group.shef.ac.uk/ccrepo) Feb. 2017
              B. P. Prascher, D. E. Woon, K. A. Peterson, T. H. Dunning, Jr., A. K. Wilson, Theor. Chem. Acc. 128, 69 (2011)
         Mg : Obtained from the Peterson Research Group Website (tyr0.chem.wsu.edu/~kipeters) Feb. 2017
              B. P. Prascher, D. E. Woon, K. A. Peterson, T. H. Dunning, Jr., A. K. Wilson, Theor. Chem. Acc. 128, 69 (2011)
      Al-Ar : Obtained from the ccRepo (grant-hill.group.shef.ac.uk/ccrepo) Feb. 2017
              D. E. Woon, T. H. Dunning, Jr., J. Chem. Phys. 98, 1358 (1993)
      Sc-Zn : Obtained from the ccRepo (grant-hill.group.shef.ac.uk/ccrepo) Feb. 2017
              N. B. Balabanov, K. A. Peterson, J. Chem. Phys. 123, 064107 (2005)
              N. B. Balabanov, K. A. Peterson, J. Chem. Phys. 125, 074110 (2006)
      Ga-Kr : Obtained from the ccRepo (grant-hill.group.shef.ac.uk/ccrepo) Feb. 2017
              A. K. Wilson, D. E. Woon, K. A. Peterson, T. H. Dunning, Jr., J. Chem. Phys. 110, 7667 (1999)
     Ag, Au : Obtained from the Peterson Research Group Website (tyr0.chem.wsu.edu/~kipeters) Feb. 2017
              K. A. Peterson, C. Puzzarini, Theor. Chem. Acc. 114, 283 (2005)

----- AuxC basis set information -----
Your calculation utilizes the auxiliary basis: aug-cc-pVTZ/C 
  H-He, B-F, Al-Ar, Ga-Kr : Obtained from the EMSL Basis Set Exchange (bse.pnl.gov) Feb. 2017
                            F. Weigend, A. Kohn, C. Hattig, J. Chem. Phys. 116, 3175 (2002)
                   Be, Mg : Obtained from the TURBOMOLE 7.0 basis set library
                            C. Haettig, Phys. Chem. Chem. Phys. 7, 59 (2005)
                       Ne : Obtained from the EMSL Basis Set Exchange (bse.pnl.gov) Feb. 2017
                            C. Haettig, Phys. Chem. Chem. Phys. 7, 59 (2005)
                            F. Weigend, A. Kohn, C. Hattig, J. Chem. Phys. 116, 3175 (2002)
                    Sc-Zn : Obtained from the EMSL Basis Set Exchange (bse.pnl.gov) Feb. 2017
                            J. G. Hill, J. A. Platts, J. Chem. Phys. 128, 044104 (2008)

================================================================================
                                        WARNINGS
                       Please study these warnings very carefully!
================================================================================


WARNING: Post HF methods need fully converged wavefunctions
  ===> : Setting SCFConvForced true
         You can overwrite this default with %scf ConvForced false 


WARNING: MDCI localization with Augmented Hessian Foster-Boys
  ===> : Switching off randomization!

INFO   : the flag for use of the SHARK integral package has been found!

================================================================================

----- Orbital basis set information -----
Your calculation utilizes the basis: aug-cc-pVTZ 
    H, B-Ne : Obtained from the ccRepo (grant-hill.group.shef.ac.uk/ccrepo) Feb. 2017
              R. A. Kendall, T. H. Dunning, Jr., R. J. Harrison, J. Chem. Phys. 96, 6796 (1992)
         He : Obtained from the ccRepo (grant-hill.group.shef.ac.uk/ccrepo) Feb. 2017
              D. E. Woon, T. H. Dunning, Jr., J. Chem. Phys. 100, 2975 (1994)
  Li-Be, Na : Obtained from the ccRepo (grant-hill.group.shef.ac.uk/ccrepo) Feb. 2017
              B. P. Prascher, D. E. Woon, K. A. Peterson, T. H. Dunning, Jr., A. K. Wilson, Theor. Chem. Acc. 128, 69 (2011)
         Mg : Obtained from the Peterson Research Group Website (tyr0.chem.wsu.edu/~kipeters) Feb. 2017
              B. P. Prascher, D. E. Woon, K. A. Peterson, T. H. Dunning, Jr., A. K. Wilson, Theor. Chem. Acc. 128, 69 (2011)
      Al-Ar : Obtained from the ccRepo (grant-hill.group.shef.ac.uk/ccrepo) Feb. 2017
              D. E. Woon, T. H. Dunning, Jr., J. Chem. Phys. 98, 1358 (1993)
      Sc-Zn : Obtained from the ccRepo (grant-hill.group.shef.ac.uk/ccrepo) Feb. 2017
              N. B. Balabanov, K. A. Peterson, J. Chem. Phys. 123, 064107 (2005)
              N. B. Balabanov, K. A. Peterson, J. Chem. Phys. 125, 074110 (2006)
      Ga-Kr : Obtained from the ccRepo (grant-hill.group.shef.ac.uk/ccrepo) Feb. 2017
              A. K. Wilson, D. E. Woon, K. A. Peterson, T. H. Dunning, Jr., J. Chem. Phys. 110, 7667 (1999)
     Ag, Au : Obtained from the Peterson Research Group Website (tyr0.chem.wsu.edu/~kipeters) Feb. 2017
              K. A. Peterson, C. Puzzarini, Theor. Chem. Acc. 114, 283 (2005)

----- AuxC basis set information -----
Your calculation utilizes the auxiliary basis: aug-cc-pVTZ/C 
  H-He, B-F, Al-Ar, Ga-Kr : Obtained from the EMSL Basis Set Exchange (bse.pnl.gov) Feb. 2017
                            F. Weigend, A. Kohn, C. Hattig, J. Chem. Phys. 116, 3175 (2002)
                   Be, Mg : Obtained from the TURBOMOLE 7.0 basis set library
                            C. Haettig, Phys. Chem. Chem. Phys. 7, 59 (2005)
                       Ne : Obtained from the EMSL Basis Set Exchange (bse.pnl.gov) Feb. 2017
                            C. Haettig, Phys. Chem. Chem. Phys. 7, 59 (2005)
                            F. Weigend, A. Kohn, C. Hattig, J. Chem. Phys. 116, 3175 (2002)
                    Sc-Zn : Obtained from the EMSL Basis Set Exchange (bse.pnl.gov) Feb. 2017
                            J. G. Hill, J. A. Platts, J. Chem. Phys. 128, 044104 (2008)

================================================================================
                                        WARNINGS
                       Please study these warnings very carefully!
================================================================================


WARNING: MOInp is set but Guess=PModel. MOInp will be ignored!
         To read the initial guess from a file you must also specify
         'MORead' in the simple input or 'Guess MORead' in the %scf block


WARNING: MDCI localization with Augmented Hessian Foster-Boys
  ===> : Switching off randomization!

INFO   : the flag for use of the SHARK integral package has been found!

================================================================================

----- Orbital basis set information -----
Your calculation utilizes the basis: aug-cc-pVTZ 
    H, B-Ne : Obtained from the ccRepo (grant-hill.group.shef.ac.uk/ccrepo) Feb. 2017
              R. A. Kendall, T. H. Dunning, Jr., R. J. Harrison, J. Chem. Phys. 96, 6796 (1992)
         He : Obtained from the ccRepo (grant-hill.group.shef.ac.uk/ccrepo) Feb. 2017
              D. E. Woon, T. H. Dunning, Jr., J. Chem. Phys. 100, 2975 (1994)
  Li-Be, Na : Obtained from the ccRepo (grant-hill.group.shef.ac.uk/ccrepo) Feb. 2017
              B. P. Prascher, D. E. Woon, K. A. Peterson, T. H. Dunning, Jr., A. K. Wilson, Theor. Chem. Acc. 128, 69 (2011)
         Mg : Obtained from the Peterson Research Group Website (tyr0.chem.wsu.edu/~kipeters) Feb. 2017
              B. P. Prascher, D. E. Woon, K. A. Peterson, T. H. Dunning, Jr., A. K. Wilson, Theor. Chem. Acc. 128, 69 (2011)
      Al-Ar : Obtained from the ccRepo (grant-hill.group.shef.ac.uk/ccrepo) Feb. 2017
              D. E. Woon, T. H. Dunning, Jr., J. Chem. Phys. 98, 1358 (1993)
      Sc-Zn : Obtained from the ccRepo (grant-hill.group.shef.ac.uk/ccrepo) Feb. 2017
              N. B. Balabanov, K. A. Peterson, J. Chem. Phys. 123, 064107 (2005)
              N. B. Balabanov, K. A. Peterson, J. Chem. Phys. 125, 074110 (2006)
      Ga-Kr : Obtained from the ccRepo (grant-hill.group.shef.ac.uk/ccrepo) Feb. 2017
              A. K. Wilson, D. E. Woon, K. A. Peterson, T. H. Dunning, Jr., J. Chem. Phys. 110, 7667 (1999)
     Ag, Au : Obtained from the Peterson Research Group Website (tyr0.chem.wsu.edu/~kipeters) Feb. 2017
              K. A. Peterson, C. Puzzarini, Theor. Chem. Acc. 114, 283 (2005)

----- AuxC basis set information -----
Your calculation utilizes the auxiliary basis: aug-cc-pVTZ/C 
  H-He, B-F, Al-Ar, Ga-Kr : Obtained from the EMSL Basis Set Exchange (bse.pnl.gov) Feb. 2017
                            F. Weigend, A. Kohn, C. Hattig, J. Chem. Phys. 116, 3175 (2002)
                   Be, Mg : Obtained from the TURBOMOLE 7.0 basis set library
                            C. Haettig, Phys. Chem. Chem. Phys. 7, 59 (2005)
                       Ne : Obtained from the EMSL Basis Set Exchange (bse.pnl.gov) Feb. 2017
                            C. Haettig, Phys. Chem. Chem. Phys. 7, 59 (2005)
                            F. Weigend, A. Kohn, C. Hattig, J. Chem. Phys. 116, 3175 (2002)
                    Sc-Zn : Obtained from the EMSL Basis Set Exchange (bse.pnl.gov) Feb. 2017
                            J. G. Hill, J. A. Platts, J. Chem. Phys. 128, 044104 (2008)

================================================================================
                                        WARNINGS
                       Please study these warnings very carefully!
================================================================================


WARNING: MOInp is set but Guess=PModel. MOInp will be ignored!
         To read the initial guess from a file you must also specify
         'MORead' in the simple input or 'Guess MORead' in the %scf block


WARNING: MDCI localization with Augmented Hessian Foster-Boys
  ===> : Switching off randomization!

INFO   : the flag for use of the SHARK integral package has been found!

================================================================================

----- Orbital basis set information -----
Your calculation utilizes the basis: aug-cc-pVTZ 
    H, B-Ne : Obtained from the ccRepo (grant-hill.group.shef.ac.uk/ccrepo) Feb. 2017
              R. A. Kendall, T. H. Dunning, Jr., R. J. Harrison, J. Chem. Phys. 96, 6796 (1992)
         He : Obtained from the ccRepo (grant-hill.group.shef.ac.uk/ccrepo) Feb. 2017
              D. E. Woon, T. H. Dunning, Jr., J. Chem. Phys. 100, 2975 (1994)
  Li-Be, Na : Obtained from the ccRepo (grant-hill.group.shef.ac.uk/ccrepo) Feb. 2017
              B. P. Prascher, D. E. Woon, K. A. Peterson, T. H. Dunning, Jr., A. K. Wilson, Theor. Chem. Acc. 128, 69 (2011)
         Mg : Obtained from the Peterson Research Group Website (tyr0.chem.wsu.edu/~kipeters) Feb. 2017
              B. P. Prascher, D. E. Woon, K. A. Peterson, T. H. Dunning, Jr., A. K. Wilson, Theor. Chem. Acc. 128, 69 (2011)
      Al-Ar : Obtained from the ccRepo (grant-hill.group.shef.ac.uk/ccrepo) Feb. 2017
              D. E. Woon, T. H. Dunning, Jr., J. Chem. Phys. 98, 1358 (1993)
      Sc-Zn : Obtained from the ccRepo (grant-hill.group.shef.ac.uk/ccrepo) Feb. 2017
              N. B. Balabanov, K. A. Peterson, J. Chem. Phys. 123, 064107 (2005)
              N. B. Balabanov, K. A. Peterson, J. Chem. Phys. 125, 074110 (2006)
      Ga-Kr : Obtained from the ccRepo (grant-hill.group.shef.ac.uk/ccrepo) Feb. 2017
              A. K. Wilson, D. E. Woon, K. A. Peterson, T. H. Dunning, Jr., J. Chem. Phys. 110, 7667 (1999)
     Ag, Au : Obtained from the Peterson Research Group Website (tyr0.chem.wsu.edu/~kipeters) Feb. 2017
              K. A. Peterson, C. Puzzarini, Theor. Chem. Acc. 114, 283 (2005)

----- AuxC basis set information -----
Your calculation utilizes the auxiliary basis: aug-cc-pVTZ/C 
  H-He, B-F, Al-Ar, Ga-Kr : Obtained from the EMSL Basis Set Exchange (bse.pnl.gov) Feb. 2017
                            F. Weigend, A. Kohn, C. Hattig, J. Chem. Phys. 116, 3175 (2002)
                   Be, Mg : Obtained from the TURBOMOLE 7.0 basis set library
                            C. Haettig, Phys. Chem. Chem. Phys. 7, 59 (2005)
                       Ne : Obtained from the EMSL Basis Set Exchange (bse.pnl.gov) Feb. 2017
                            C. Haettig, Phys. Chem. Chem. Phys. 7, 59 (2005)
                            F. Weigend, A. Kohn, C. Hattig, J. Chem. Phys. 116, 3175 (2002)
                    Sc-Zn : Obtained from the EMSL Basis Set Exchange (bse.pnl.gov) Feb. 2017
                            J. G. Hill, J. A. Platts, J. Chem. Phys. 128, 044104 (2008)

================================================================================
                                        WARNINGS
                       Please study these warnings very carefully!
================================================================================


WARNING: MOInp is set but Guess=PModel. MOInp will be ignored!
         To read the initial guess from a file you must also specify
         'MORead' in the simple input or 'Guess MORead' in the %scf block


WARNING: MDCI localization with Augmented Hessian Foster-Boys
  ===> : Switching off randomization!

INFO   : the flag for use of the SHARK integral package has been found!

================================================================================

----- Orbital basis set information -----
Your calculation utilizes the basis: aug-cc-pVTZ 
    H, B-Ne : Obtained from the ccRepo (grant-hill.group.shef.ac.uk/ccrepo) Feb. 2017
              R. A. Kendall, T. H. Dunning, Jr., R. J. Harrison, J. Chem. Phys. 96, 6796 (1992)
         He : Obtained from the ccRepo (grant-hill.group.shef.ac.uk/ccrepo) Feb. 2017
              D. E. Woon, T. H. Dunning, Jr., J. Chem. Phys. 100, 2975 (1994)
  Li-Be, Na : Obtained from the ccRepo (grant-hill.group.shef.ac.uk/ccrepo) Feb. 2017
              B. P. Prascher, D. E. Woon, K. A. Peterson, T. H. Dunning, Jr., A. K. Wilson, Theor. Chem. Acc. 128, 69 (2011)
         Mg : Obtained from the Peterson Research Group Website (tyr0.chem.wsu.edu/~kipeters) Feb. 2017
              B. P. Prascher, D. E. Woon, K. A. Peterson, T. H. Dunning, Jr., A. K. Wilson, Theor. Chem. Acc. 128, 69 (2011)
      Al-Ar : Obtained from the ccRepo (grant-hill.group.shef.ac.uk/ccrepo) Feb. 2017
              D. E. Woon, T. H. Dunning, Jr., J. Chem. Phys. 98, 1358 (1993)
      Sc-Zn : Obtained from the ccRepo (grant-hill.group.shef.ac.uk/ccrepo) Feb. 2017
              N. B. Balabanov, K. A. Peterson, J. Chem. Phys. 123, 064107 (2005)
              N. B. Balabanov, K. A. Peterson, J. Chem. Phys. 125, 074110 (2006)
      Ga-Kr : Obtained from the ccRepo (grant-hill.group.shef.ac.uk/ccrepo) Feb. 2017
              A. K. Wilson, D. E. Woon, K. A. Peterson, T. H. Dunning, Jr., J. Chem. Phys. 110, 7667 (1999)
     Ag, Au : Obtained from the Peterson Research Group Website (tyr0.chem.wsu.edu/~kipeters) Feb. 2017
              K. A. Peterson, C. Puzzarini, Theor. Chem. Acc. 114, 283 (2005)

----- AuxC basis set information -----
Your calculation utilizes the auxiliary basis: aug-cc-pVTZ/C 
  H-He, B-F, Al-Ar, Ga-Kr : Obtained from the EMSL Basis Set Exchange (bse.pnl.gov) Feb. 2017
                            F. Weigend, A. Kohn, C. Hattig, J. Chem. Phys. 116, 3175 (2002)
                   Be, Mg : Obtained from the TURBOMOLE 7.0 basis set library
                            C. Haettig, Phys. Chem. Chem. Phys. 7, 59 (2005)
                       Ne : Obtained from the EMSL Basis Set Exchange (bse.pnl.gov) Feb. 2017
                            C. Haettig, Phys. Chem. Chem. Phys. 7, 59 (2005)
                            F. Weigend, A. Kohn, C. Hattig, J. Chem. Phys. 116, 3175 (2002)
                    Sc-Zn : Obtained from the EMSL Basis Set Exchange (bse.pnl.gov) Feb. 2017
                            J. G. Hill, J. A. Platts, J. Chem. Phys. 128, 044104 (2008)

================================================================================
                                        WARNINGS
                       Please study these warnings very carefully!
================================================================================


WARNING: MOInp is set but Guess=PModel. MOInp will be ignored!
         To read the initial guess from a file you must also specify
         'MORead' in the simple input or 'Guess MORead' in the %scf block


WARNING: MDCI localization with Augmented Hessian Foster-Boys
  ===> : Switching off randomization!

INFO   : the flag for use of the SHARK integral package has been found!

================================================================================
                                       INPUT FILE
================================================================================
NAME = CP.inp
|  1> #------------------------------------------------------
|  2> # After the Orca calculation you will get two inter-
|  3> # action energies at the end of the output file. The
|  4> # difference is the negative BSSE.
|  5> #
|  6> # The script will set the orbital guess PModel for 
|  7> # jobs 2-5 since Orca will try to use the .gbw-files of
|  8> # the earlier calculations which does not work for jobs
|  9> # 2 and 3 and does not help for jobs 4 and 5.
| 10> #------------------------------------------------------
| 11> #
| 12> #-------------------------
| 13> #     First the dimer
| 14> #-------------------------
| 15> 
| 16> %id "dimer"
| 17> ! DLPNO-CCSD(T) aug-cc-pVTZ aug-cc-pVTZ/C TightPNO
| 18> %maxcore 2000
| 19> %pal
| 20> nprocs 24
| 21> end
| 22> 
| 23> * xyz 0 1
| 24> H    -3.443235     6.434413    -0.504000 
| 25> O    -3.271685     7.084807    -1.230295 
| 26> H    -3.161553     7.963534    -0.826568 
| 27> H    -3.164809     4.919460     1.110722 
| 28> O    -3.919989     5.319764     0.633197 
| 29> H    -4.366159     5.812195     1.362342 
| 30> H    -0.682080     6.306713     5.076776 
| 31> O    -1.295406     6.880480     5.606853 
| 32> H    -1.275444     7.764121     5.165067 
| 33> H    -1.795517     9.694788    -0.741253 
| 34> O    -2.614221     9.521136    -0.208755 
| 35> H    -3.175160     10.293579    -0.322272 
| 36> H    -2.306709     8.721835     1.321014 
| 37> O    -2.167145     8.083444     2.050273 
| 38> H    -1.370696     7.570353     1.808332 
| 39> H    -4.391280     6.394408     3.573568 
| 40> O    -4.543337     6.835331     2.712800 
| 41> H    -3.679109     7.260003     2.521458 
| 42> H    -1.772171     8.975016     3.511879 
| 43> O    -1.523132     9.283759     4.411862 
| 44> H    -2.373779     9.382569     4.871546 
| 45> H    -3.782438     5.305952     5.851479 
| 46> O    -3.790202     6.088514     5.266701 
| 47> H    -2.829598     6.345314     5.302956 
| 48> H    -4.178585     9.037329     6.694452 
| 49> O    -4.085999     8.842011     5.757539 
| 50> H    -4.148955     7.864689     5.702885 
| 51> O    -5.148706     9.668114     2.922701 
| 52> H    -4.961285     9.791795     3.860486 
| 53> H    -5.216163     8.702068     2.854049 
| 54> *
| 55> 
| 56> #--------------------------
| 57> #   Now the fragments at
| 58> #      dimer-geometry 
| 59> #-------------------------
| 60> 
| 61> $new_job
| 62> %id "fragment"
| 63> %scf guess PModel end
| 64> ! DLPNO-CCSD(T) aug-cc-pVTZ aug-cc-pVTZ/C TightPNO
| 65> %maxcore 2000
| 66> %pal
| 67> nprocs 24
| 68> end
| 69> 
| 70> * xyz 0 1
| 71> H    -3.443235     6.434413    -0.504000 
| 72> O    -3.271685     7.084807    -1.230295 
| 73> H    -3.161553     7.963534    -0.826568 
| 74> H    -3.164809     4.919460     1.110722 
| 75> O    -3.919989     5.319764     0.633197 
| 76> H    -4.366159     5.812195     1.362342 
| 77> H    -0.682080     6.306713     5.076776 
| 78> O    -1.295406     6.880480     5.606853 
| 79> H    -1.275444     7.764121     5.165067 
| 80> H    -1.795517     9.694788    -0.741253 
| 81> O    -2.614221     9.521136    -0.208755 
| 82> H    -3.175160     10.293579    -0.322272 
| 83> H    -2.306709     8.721835     1.321014 
| 84> O    -2.167145     8.083444     2.050273 
| 85> H    -1.370696     7.570353     1.808332 
| 86> H    -4.391280     6.394408     3.573568 
| 87> O    -4.543337     6.835331     2.712800 
| 88> H    -3.679109     7.260003     2.521458 
| 89> H    -1.772171     8.975016     3.511879 
| 90> O    -1.523132     9.283759     4.411862 
| 91> H    -2.373779     9.382569     4.871546 
| 92> H    -3.782438     5.305952     5.851479 
| 93> O    -3.790202     6.088514     5.266701 
| 94> H    -2.829598     6.345314     5.302956 
| 95> H    -4.178585     9.037329     6.694452 
| 96> O    -4.085999     8.842011     5.757539 
| 97> H    -4.148955     7.864689     5.702885 
| 98> *
| 99> 
|100> $new_job
|101> %id "fragment"
|102> %scf guess PModel end
|103> ! DLPNO-CCSD(T) aug-cc-pVTZ aug-cc-pVTZ/C TightPNO
|104> %maxcore 2000
|105> %pal
|106> nprocs 6
|107> end
|108> 
|109> * xyz 0 1
|110> O    -5.148706     9.668114     2.922701 
|111> H    -4.961285     9.791795     3.860486 
|112> H    -5.216163     8.702068     2.854049 
|113> *
|114> 
|115> #--------------------------
|116> #   Now the fragments at
|117> #   dimer-geometry with  
|118> #     the dimer-basis
|119> #-------------------------
|120> 
|121> $new_job
|122> %id "ghost"
|123> %scf guess PModel end
|124> ! DLPNO-CCSD(T) aug-cc-pVTZ aug-cc-pVTZ/C TightPNO
|125> %maxcore 2000
|126> %pal
|127> nprocs 24
|128> end
|129> 
|130> * xyz 0 1
|131> H         -3.443235     6.434413    -0.504000 
|132> O         -3.271685     7.084807    -1.230295 
|133> H         -3.161553     7.963534    -0.826568 
|134> H         -3.164809     4.919460     1.110722 
|135> O         -3.919989     5.319764     0.633197 
|136> H         -4.366159     5.812195     1.362342 
|137> H         -0.682080     6.306713     5.076776 
|138> O         -1.295406     6.880480     5.606853 
|139> H         -1.275444     7.764121     5.165067 
|140> H         -1.795517     9.694788    -0.741253 
|141> O         -2.614221     9.521136    -0.208755 
|142> H         -3.175160     10.293579    -0.322272 
|143> H         -2.306709     8.721835     1.321014 
|144> O         -2.167145     8.083444     2.050273 
|145> H         -1.370696     7.570353     1.808332 
|146> H         -4.391280     6.394408     3.573568 
|147> O         -4.543337     6.835331     2.712800 
|148> H         -3.679109     7.260003     2.521458 
|149> H         -1.772171     8.975016     3.511879 
|150> O         -1.523132     9.283759     4.411862 
|151> H         -2.373779     9.382569     4.871546 
|152> H         -3.782438     5.305952     5.851479 
|153> O         -3.790202     6.088514     5.266701 
|154> H         -2.829598     6.345314     5.302956 
|155> H         -4.178585     9.037329     6.694452 
|156> O         -4.085999     8.842011     5.757539 
|157> H         -4.148955     7.864689     5.702885 
|158> O :       -5.148706     9.668114     2.922701 
|159> H :       -4.961285     9.791795     3.860486 
|160> H :       -5.216163     8.702068     2.854049 
|161> *
|162> 
|163> $new_job
|164> %id "ghost"
|165> %scf guess PModel end
|166> ! DLPNO-CCSD(T) aug-cc-pVTZ aug-cc-pVTZ/C TightPNO
|167> %maxcore 2000
|168> %pal
|169> nprocs 6
|170> end
|171> 
|172> * xyz 0 1
|173> H :       -3.443235     6.434413    -0.504000 
|174> O :       -3.271685     7.084807    -1.230295 
|175> H :       -3.161553     7.963534    -0.826568 
|176> H :       -3.164809     4.919460     1.110722 
|177> O :       -3.919989     5.319764     0.633197 
|178> H :       -4.366159     5.812195     1.362342 
|179> H :       -0.682080     6.306713     5.076776 
|180> O :       -1.295406     6.880480     5.606853 
|181> H :       -1.275444     7.764121     5.165067 
|182> H :       -1.795517     9.694788    -0.741253 
|183> O :       -2.614221     9.521136    -0.208755 
|184> H :       -3.175160     10.293579    -0.322272 
|185> H :       -2.306709     8.721835     1.321014 
|186> O :       -2.167145     8.083444     2.050273 
|187> H :       -1.370696     7.570353     1.808332 
|188> H :       -4.391280     6.394408     3.573568 
|189> O :       -4.543337     6.835331     2.712800 
|190> H :       -3.679109     7.260003     2.521458 
|191> H :       -1.772171     8.975016     3.511879 
|192> O :       -1.523132     9.283759     4.411862 
|193> H :       -2.373779     9.382569     4.871546 
|194> H :       -3.782438     5.305952     5.851479 
|195> O :       -3.790202     6.088514     5.266701 
|196> H :       -2.829598     6.345314     5.302956 
|197> H :       -4.178585     9.037329     6.694452 
|198> O :       -4.085999     8.842011     5.757539 
|199> H :       -4.148955     7.864689     5.702885 
|200> O         -5.148706     9.668114     2.922701 
|201> H         -4.961285     9.791795     3.860486 
|202> H         -5.216163     8.702068     2.854049 
|203> *
|204> 
|205> 
|206>                          ****END OF INPUT****
================================================================================


                 $$$$$$$$$$$$$$$$$$$$$$$$$$$$$$$$$$$$$$$$$$$$$$ 
                 $ THERE ARE  5 JOBS TO BE PROCESSED THIS RUN $
                 $$$$$$$$$$$$$$$$$$$$$$$$$$$$$$$$$$$$$$$$$$$$$$ 




                 $$$$$$$$$$$$$$$$  JOB NUMBER  1 $$$$$$$$$$$$$$


                       ****************************
                       * Single Point Calculation *
                       ****************************

---------------------------------
CARTESIAN COORDINATES (ANGSTROEM)
---------------------------------
  H     -3.443235    6.434413   -0.504000
  O     -3.271685    7.084807   -1.230295
  H     -3.161553    7.963534   -0.826568
  H     -3.164809    4.919460    1.110722
  O     -3.919989    5.319764    0.633197
  H     -4.366159    5.812195    1.362342
  H     -0.682080    6.306713    5.076776
  O     -1.295406    6.880480    5.606853
  H     -1.275444    7.764121    5.165067
  H     -1.795517    9.694788   -0.741253
  O     -2.614221    9.521136   -0.208755
  H     -3.175160   10.293579   -0.322272
  H     -2.306709    8.721835    1.321014
  O     -2.167145    8.083444    2.050273
  H     -1.370696    7.570353    1.808332
  H     -4.391280    6.394408    3.573568
  O     -4.543337    6.835331    2.712800
  H     -3.679109    7.260003    2.521458
  H     -1.772171    8.975016    3.511879
  O     -1.523132    9.283759    4.411862
  H     -2.373779    9.382569    4.871546
  H     -3.782438    5.305952    5.851479
  O     -3.790202    6.088514    5.266701
  H     -2.829598    6.345314    5.302956
  H     -4.178585    9.037329    6.694452
  O     -4.085999    8.842011    5.757539
  H     -4.148955    7.864689    5.702885
  O     -5.148706    9.668114    2.922701
  H     -4.961285    9.791795    3.860486
  H     -5.216163    8.702068    2.854049

----------------------------
CARTESIAN COORDINATES (A.U.)
----------------------------
  NO LB      ZA    FRAG     MASS         X           Y           Z
   0 H     1.0000    0     1.008   -6.506771   12.159278   -0.952422
   1 O     8.0000    0    15.999   -6.182589   13.388345   -2.324921
   2 H     1.0000    0     1.008   -5.974469   15.048898   -1.561987
   3 H     1.0000    0     1.008   -5.980622    9.296432    2.098960
   4 O     8.0000    0    15.999   -7.407706   10.052897    1.196569
   5 H     1.0000    0     1.008   -8.250845   10.983457    2.574453
   6 H     1.0000    0     1.008   -1.288944   11.917960    9.593716
   7 O     8.0000    0    15.999   -2.447963   13.002223   10.595417
   8 H     1.0000    0     1.008   -2.410240   14.672062    9.760562
   9 H     1.0000    0     1.008   -3.393035   18.320494   -1.400765
  10 O     8.0000    0    15.999   -4.940162   17.992340   -0.394490
  11 H     1.0000    0     1.008   -6.000183   19.452045   -0.609006
  12 H     1.0000    0     1.008   -4.359048   16.481880    2.496355
  13 O     8.0000    0    15.999   -4.095311   15.275495    3.874454
  14 H     1.0000    0     1.008   -2.590240   14.305894    3.417252
  15 H     1.0000    0     1.008   -8.298317   12.083680    6.753065
  16 O     8.0000    0    15.999   -8.585663   12.916904    5.126449
  17 H     1.0000    0     1.008   -6.952508   13.719417    4.764865
  18 H     1.0000    0     1.008   -3.348918   16.960322    6.636490
  19 O     8.0000    0    15.999   -2.878302   17.543762    8.337211
  20 H     1.0000    0     1.008   -4.485792   17.730486    9.205888
  21 H     1.0000    0     1.008   -7.147772   10.026796   11.057693
  22 O     8.0000    0    15.999   -7.162444   11.505624    9.952623
  23 H     1.0000    0     1.008   -5.347165   11.990906   10.021135
  24 H     1.0000    0     1.008   -7.896381   17.078077   12.650681
  25 O     8.0000    0    15.999   -7.721419   16.708979   10.880172
  26 H     1.0000    0     1.008   -7.840389   14.862108   10.776891
  27 O     8.0000    0    15.999   -9.729644   18.270088    5.523104
  28 H     1.0000    0     1.008   -9.375470   18.503811    7.295261
  29 H     1.0000    0     1.008   -9.857120   16.444525    5.393371

--------------------------------
INTERNAL COORDINATES (ANGSTROEM)
--------------------------------
 H      0   0   0     0.000000000000     0.00000000     0.00000000
 O      1   0   0     0.989922312488     0.00000000     0.00000000
 H      2   1   0     0.973286026039   107.96599265     0.00000000
 H      1   2   3     2.231575848357   162.80211642   269.18711287
 O      4   1   2     0.979066009236    43.38818086   187.39938901
 H      5   4   1     0.986513248611   101.09553996   245.51670201
 H      4   1   2     4.880368685291   117.29168533    63.63198056
 O      7   4   1     0.993156069555   106.48691390    75.51259747
 H      8   7   4     0.988126898794   105.39836255   280.86250894
 H      3   2   1     2.206937564825   142.59121645   127.18900059
 O     10   3   2     0.991960370541    51.13861481   186.89191576
 H     11  10   3     0.961356780420   106.11276904   234.09433070
 H     11  10   3     1.753179657681   113.79418043    93.04082979
 O     13  11  10     0.979203690791   166.42800389   268.90590057
 H     14  13  11     0.977818404083   105.89746339    63.68056834
 H      6   5   4     2.286727676197   147.86182671     0.20016957
 O     16   6   5     0.979007647060    42.79234970   137.53395422
 H     17  16   6     0.981757660796   103.26477508   263.01799497
 H     14  13  15     1.757042171121   108.70796664   114.43684043
 O     19  14  13     0.983520240696   167.79872086   184.98414050
 H     20  19  14     0.971942958493   104.06864412   267.01339232
 H     16   6   5     2.596979701272   137.63704277   324.71725819
 O     22  16   6     0.976948756499    30.38722140   140.39452065
 H     23  22  16     0.994997844139   100.20990193   232.50420053
 H     21  20  19     2.588339552700   158.40275645   124.06846061
 O     25  21  20     0.961523404858    43.42309843   244.34689290
 H     26  25  21     0.980871454033   104.50782301   118.77738400
 O     18  17  16     2.849510462479    83.34547982   247.91405180
 H     28  18  17     0.964294730478    98.34270707    93.14100046
 H     28  18  17     0.970828727464    35.40718928   353.94172953

---------------------------
INTERNAL COORDINATES (A.U.)
---------------------------
 H      0   0   0     0.000000000000     0.00000000     0.00000000
 O      1   0   0     1.870682064460     0.00000000     0.00000000
 H      2   1   0     1.839244039185   107.96599265     0.00000000
 H      1   2   3     4.217067200467   162.80211642   269.18711287
 O      4   1   2     1.850166624487    43.38818086   187.39938901
 H      5   4   1     1.864239867361   101.09553996   245.51670201
 H      4   1   2     9.222560247765   117.29168533    63.63198056
 O      7   4   1     1.876792979701   106.48691390    75.51259747
 H      8   7   4     1.867289224282   105.39836255   280.86250894
 H      3   2   1     4.170507592183   142.59121645   127.18900059
 O     10   3   2     1.874533436026    51.13861481   186.89191576
 H     11  10   3     1.816701031982   106.11276904   234.09433070
 H     11  10   3     3.313029416579   113.79418043    93.04082979
 O     13  11  10     1.850426804919   166.42800389   268.90590057
 H     14  13  11     1.847808992424   105.89746339    63.68056834
 H      6   5   4     4.321289050871   147.86182671     0.20016957
 O     16   6   5     1.850056335958    42.79234970   137.53395422
 H     17  16   6     1.855253108784   103.26477508   263.01799497
 H     14  13  15     3.320328509168   108.70796664   114.43684043
 O     19  14  13     1.858583902084   167.79872086   184.98414050
 H     20  19  14     1.836706009346   104.06864412   267.01339232
 H     16   6   5     4.907580410758   137.63704277   324.71725819
 O     22  16   6     1.846165596657    30.38722140   140.39452065
 H     23  22  16     1.880273429265   100.20990193   232.50420053
 H     21  20  19     4.891252896200   158.40275645   124.06846061
 O     25  21  20     1.817015906536    43.42309843   244.34689290
 H     26  25  21     1.853578420703   104.50782301   118.77738400
 O     18  17  16     5.384794389829    83.34547982   247.91405180
 H     28  18  17     1.822252952986    98.34270707    93.14100046
 H     28  18  17     1.834600417850    35.40718928   353.94172953

---------------------
BASIS SET INFORMATION
---------------------
There are 2 groups of distinct atoms

 Group   1 Type H   : 6s3p2d contracted to 4s3p2d pattern {3111/111/11}
 Group   2 Type O   : 19s6p3d2f contracted to 5s4p3d2f pattern {88111/3111/111/11}

Atom   0H    basis set group =>   1
Atom   1O    basis set group =>   2
Atom   2H    basis set group =>   1
Atom   3H    basis set group =>   1
Atom   4O    basis set group =>   2
Atom   5H    basis set group =>   1
Atom   6H    basis set group =>   1
Atom   7O    basis set group =>   2
Atom   8H    basis set group =>   1
Atom   9H    basis set group =>   1
Atom  10O    basis set group =>   2
Atom  11H    basis set group =>   1
Atom  12H    basis set group =>   1
Atom  13O    basis set group =>   2
Atom  14H    basis set group =>   1
Atom  15H    basis set group =>   1
Atom  16O    basis set group =>   2
Atom  17H    basis set group =>   1
Atom  18H    basis set group =>   1
Atom  19O    basis set group =>   2
Atom  20H    basis set group =>   1
Atom  21H    basis set group =>   1
Atom  22O    basis set group =>   2
Atom  23H    basis set group =>   1
Atom  24H    basis set group =>   1
Atom  25O    basis set group =>   2
Atom  26H    basis set group =>   1
Atom  27O    basis set group =>   2
Atom  28H    basis set group =>   1
Atom  29H    basis set group =>   1
---------------------------------
AUXILIARY/C BASIS SET INFORMATION
---------------------------------
There are 2 groups of distinct atoms

 Group   1 Type H   : 5s4p3d2f contracted to 5s4p3d2f pattern {11111/1111/111/11}
 Group   2 Type O   : 9s7p6d4f2g contracted to 9s7p6d4f2g pattern {111111111/1111111/111111/1111/11}

Atom   0H    basis set group =>   1
Atom   1O    basis set group =>   2
Atom   2H    basis set group =>   1
Atom   3H    basis set group =>   1
Atom   4O    basis set group =>   2
Atom   5H    basis set group =>   1
Atom   6H    basis set group =>   1
Atom   7O    basis set group =>   2
Atom   8H    basis set group =>   1
Atom   9H    basis set group =>   1
Atom  10O    basis set group =>   2
Atom  11H    basis set group =>   1
Atom  12H    basis set group =>   1
Atom  13O    basis set group =>   2
Atom  14H    basis set group =>   1
Atom  15H    basis set group =>   1
Atom  16O    basis set group =>   2
Atom  17H    basis set group =>   1
Atom  18H    basis set group =>   1
Atom  19O    basis set group =>   2
Atom  20H    basis set group =>   1
Atom  21H    basis set group =>   1
Atom  22O    basis set group =>   2
Atom  23H    basis set group =>   1
Atom  24H    basis set group =>   1
Atom  25O    basis set group =>   2
Atom  26H    basis set group =>   1
Atom  27O    basis set group =>   2
Atom  28H    basis set group =>   1
Atom  29H    basis set group =>   1


           ************************************************************
           *        Program running with 24 parallel MPI-processes    *
           *              working on a common directory               *
           ************************************************************
------------------------------------------------------------------------------
                           ORCA GTO INTEGRAL CALCULATION
------------------------------------------------------------------------------
------------------------------------------------------------------------------
                   ___                                                        
                  /   \      - P O W E R E D   B Y -                         
                 /     \                                                     
                 |  |  |   _    _      __       _____    __    __             
                 |  |  |  | |  | |    /  \     |  _  \  |  |  /  |          
                  \  \/   | |  | |   /    \    | | | |  |  | /  /          
                 / \  \   | |__| |  /  /\  \   | |_| |  |  |/  /          
                |  |  |   |  __  | /  /__\  \  |    /   |      \           
                |  |  |   | |  | | |   __   |  |    \   |  |\   \          
                \     /   | |  | | |  |  |  |  | |\  \  |  | \   \       
                 \___/    |_|  |_| |__|  |__|  |_| \__\ |__|  \__/        
                                                                              
                      - O R C A' S   B I G   F R I E N D -                    
                                      &                                       
                       - I N T E G R A L  F E E D E R -                       
                                                                              
 v1 FN, 2020, v2 2021                                                         
------------------------------------------------------------------------------


Reading SHARK input file CP.SHARKINP.tmp ... ok
----------------------
SHARK INTEGRAL PACKAGE
----------------------

Number of atoms                             ...     30
Number of basis functions                   ...    920
Number of shells                            ...    320
Maximum angular momentum                    ...      3
Integral batch strategy                     ... SHARK/LIBINT Hybrid
RI-J (if used) integral strategy            ... SPLIT-RIJ (Revised 2003 algorithm where possible)
Printlevel                                  ...      1
Contraction scheme used                     ... SEGMENTED contraction
Coulomb Range Separation                    ... NOT USED
Exchange Range Separation                   ... NOT USED
Finite Nucleus Model                        ... NOT USED
Auxiliary Coulomb fitting basis             ... NOT available
Auxiliary J/K fitting basis                 ... NOT available
Auxiliary Correlation fitting basis         ... AVAILABLE
   # of basis functions in Aux-C            ...   1980
   # of shells in Aux-C                     ...    560
   Maximum angular momentum in Aux-C        ...      4
Auxiliary 'external' fitting basis          ... NOT available
Integral threshold                          ...     1.000000e-10
Primitive cut-off                           ...     1.000000e-11
Primitive pair pre-selection threshold      ...     1.000000e-11

Calculating pre-screening integrals         ... done (  0.7 sec) Dimension = 320
Organizing shell pair data                  ... done (  1.0 sec)
Shell pair information
Total number of shell pairs                 ...     51360
Shell pairs after pre-screening             ...     43642
Total number of primitive shell pairs       ...    136110
Primitive shell pairs kept                  ...     82106
          la=0 lb=0:   7470 shell pairs
          la=1 lb=0:  11276 shell pairs
          la=1 lb=1:   4322 shell pairs
          la=2 lb=0:   7725 shell pairs
          la=2 lb=1:   5846 shell pairs
          la=2 lb=2:   2043 shell pairs
          la=3 lb=0:   2111 shell pairs
          la=3 lb=1:   1605 shell pairs
          la=3 lb=2:   1093 shell pairs
          la=3 lb=3:    151 shell pairs

Calculating one electron integrals          ... done (  0.2 sec)
Calculating RI/C V-Matrix + Cholesky decomp.... done (  0.8 sec)
Calculating Nuclear repulsion               ... done (  0.0 sec) ENN=    704.353998413804 Eh

SHARK setup successfully completed in   3.1 seconds

Maximum memory used throughout the entire GTOINT-calculation: 66.2 MB


           ************************************************************
           *        Program running with 24 parallel MPI-processes    *
           *              working on a common directory               *
           ************************************************************
-------------------------------------------------------------------------------
                                 ORCA SCF
-------------------------------------------------------------------------------

------------
SCF SETTINGS
------------
Hamiltonian:
 Ab initio Hamiltonian  Method          .... Hartree-Fock(GTOs)


General Settings:
 Integral files         IntName         .... CP
 Hartree-Fock type      HFTyp           .... RHF
 Total Charge           Charge          ....    0
 Multiplicity           Mult            ....    1
 Number of Electrons    NEL             ....  100
 Basis Dimension        Dim             ....  920
 Nuclear Repulsion      ENuc            ....    704.3539984138 Eh

Convergence Acceleration:
 DIIS                   CNVDIIS         .... on
   Start iteration      DIISMaxIt       ....    12
   Startup error        DIISStart       ....  0.200000
   # of expansion vecs  DIISMaxEq       ....     5
   Bias factor          DIISBfac        ....   1.050
   Max. coefficient     DIISMaxC        ....  10.000
 Trust-Rad. Augm. Hess. CNVTRAH         .... auto
   Auto Start mean grad. ratio tolernc. ....  1.125000
   Auto Start start iteration           ....    20
   Auto Start num. interpolation iter.  ....    10
   Max. Number of Micro iterations      ....    16
   Max. Number of Macro iterations      .... Maxiter - #DIIS iter
   Number of Davidson start vectors     ....     2
   Converg. threshold I  (grad. norm)   ....   5.000e-05
   Converg. threshold II (energy diff.) ....   1.000e-06
   Grad. Scal. Fac. for Micro threshold ....   0.100
   Minimum threshold for Micro iter.    ....   0.010
   NR start threshold (gradient norm)   ....   0.001
   Initial trust radius                 ....   0.400
   Minimum AH scaling param. (alpha)    ....   1.000
   Maximum AH scaling param. (alpha)    .... 1000.000
   Orbital update algorithm             .... Taylor
   White noise on init. David. guess    .... on
   Maximum white noise                  ....   0.010
   Quad. conv. algorithm                .... NR
 SOSCF                  CNVSOSCF        .... on
   Start iteration      SOSCFMaxIt      ....   150
   Startup grad/error   SOSCFStart      ....  0.003300
 Level Shifting         CNVShift        .... on
   Level shift para.    LevelShift      ....    0.2500
   Turn off err/grad.   ShiftErr        ....    0.0010
 Zerner damping         CNVZerner       .... off
 Static damping         CNVDamp         .... on
   Fraction old density DampFac         ....    0.7000
   Max. Damping (<1)    DampMax         ....    0.9800
   Min. Damping (>=0)   DampMin         ....    0.0000
   Turn off err/grad.   DampErr         ....    0.1000
 Fernandez-Rico         CNVRico         .... off

SCF Procedure:
 Maximum # iterations   MaxIter         ....   125
 SCF integral mode      SCFMode         .... Direct
   Integral package                     .... SHARK and LIBINT hybrid scheme
 Reset frequency        DirectResetFreq ....    20
 Integral Threshold     Thresh          ....  1.000e-10 Eh
 Primitive CutOff       TCut            ....  1.000e-11 Eh

Convergence Tolerance:
 Convergence Check Mode ConvCheckMode   .... Total+1el-Energy
 Convergence forced     ConvForced      .... 1
 Energy Change          TolE            ....  1.000e-06 Eh
 1-El. energy change                    ....  1.000e-03 Eh
 Orbital Gradient       TolG            ....  5.000e-05
 Orbital Rotation angle TolX            ....  5.000e-05
 DIIS Error             TolErr          ....  1.000e-06


Diagonalization of the overlap matrix:
Smallest eigenvalue                        ... 7.711e-06
Time for diagonalization                   ...    0.506 sec
Threshold for overlap eigenvalues          ... 1.000e-08
Number of eigenvalues below threshold      ... 0
Time for construction of square roots      ...    0.277 sec
Total time needed                          ...    0.802 sec

Time for model grid setup =    0.627 sec

------------------------------
INITIAL GUESS: MODEL POTENTIAL
------------------------------
Loading Hartree-Fock densities                     ... done
Calculating cut-offs                               ... done
Initializing the effective Hamiltonian             ... done
Setting up the integral package (SHARK)            ... done
Starting the Coulomb interaction                   ... done (   1.0 sec)
Reading the grid                                   ... done
Mapping shells                                     ... done
Starting the XC term evaluation                    ... done (   0.1 sec)
Transforming the Hamiltonian                       ... done (   0.2 sec)
Diagonalizing the Hamiltonian                      ... done (   0.3 sec)
Back transforming the eigenvectors                 ... done (   0.0 sec)
Now organizing SCF variables                       ... done
                      ------------------
                      INITIAL GUESS DONE (   2.6 sec)
                      ------------------
--------------
SCF ITERATIONS
--------------
ITER       Energy         Delta-E        Max-DP      RMS-DP      [F,P]     Damp
               ***  Starting incremental Fock matrix formation  ***
  0   -759.8044871389   0.000000000000 0.02935799  0.00035498  0.3897026 0.7000
  1   -760.1258609810  -0.321373842068 0.01953080  0.00025500  0.2256794 0.7000
                               ***Turning on DIIS***
  2   -760.2982512895  -0.172390308531 0.01322332  0.00015562  0.1177477 0.7000
  3   -761.7089600000  -1.410708710458 0.03627687  0.00034291  0.0849931 0.0000
  4   -760.4074808963   1.301479103696 0.00568008  0.00005334  0.0127148 0.0000
  5   -760.6168430790  -0.209362182734 0.00359674  0.00002924  0.0033329 0.0000
                      *** Initiating the SOSCF procedure ***
                           *** Shutting down DIIS ***
                      *** Re-Reading the Fockian *** 
                      *** Removing any level shift *** 
ITER      Energy       Delta-E        Grad      Rot      Max-DP    RMS-DP
  6   -760.62109546  -0.0042523835  0.000435  0.000435  0.001833  0.000015
               *** Restarting incremental Fock matrix formation ***
  7   -760.63541695  -0.0143214831  0.000117  0.000174  0.000398  0.000005
  8   -760.63542478  -0.0000078346  0.000052  0.000130  0.000386  0.000004
  9   -760.63542667  -0.0000018856  0.000026  0.000016  0.000109  0.000001
                  ***Gradient check signals convergence***
              ***Rediagonalizing the Fockian in SOSCF/NRSCF***

               *****************************************************
               *                     SUCCESS                       *
               *           SCF CONVERGED AFTER  10 CYCLES          *
               *****************************************************


----------------
TOTAL SCF ENERGY
----------------

Total Energy       :         -760.63542675 Eh          -20697.94222 eV

Components:
Nuclear Repulsion  :          704.35399841 Eh           19166.44670 eV
Electronic Energy  :        -1464.98942516 Eh          -39864.38892 eV
One Electron Energy:        -2455.05807943 Eh          -66805.52667 eV
Two Electron Energy:          990.06865427 Eh           26941.13774 eV

Virial components:
Potential Energy   :        -1520.13361799 Eh          -41364.93870 eV
Kinetic Energy     :          759.49819124 Eh           20666.99647 eV
Virial Ratio       :            2.00149735


---------------
SCF CONVERGENCE
---------------

  Last Energy change         ...   -8.0430e-08  Tolerance :   1.0000e-06
  Last MAX-Density change    ...    5.9643e-05  Tolerance :   1.0000e-05
  Last RMS-Density change    ...    6.0997e-07  Tolerance :   1.0000e-06
  Last Orbital Gradient      ...    8.0351e-06  Tolerance :   5.0000e-05
  Last Orbital Rotation      ...    6.5105e-06  Tolerance :   5.0000e-05

             **** THE GBW FILE WAS UPDATED (CP.gbw) ****
             **** DENSITY CP.scfp WAS UPDATED ****
             **** ENERGY FILE WAS UPDATED (CP.en.tmp) ****
             **** THE GBW FILE WAS UPDATED (CP.gbw) ****
             **** DENSITY CP.scfp WAS UPDATED ****
----------------
ORBITAL ENERGIES
----------------

  NO   OCC          E(Eh)            E(eV) 
   0   2.0000     -20.624326      -561.2165 
   1   2.0000     -20.604175      -560.6681 
   2   2.0000     -20.590946      -560.3081 
   3   2.0000     -20.586405      -560.1845 
   4   2.0000     -20.579366      -559.9930 
   5   2.0000     -20.558728      -559.4314 
   6   2.0000     -20.555225      -559.3361 
   7   2.0000     -20.548912      -559.1643 
   8   2.0000     -20.526974      -558.5674 
   9   2.0000     -20.488121      -557.5101 
  10   2.0000      -1.410819       -38.3903 
  11   2.0000      -1.391727       -37.8708 
  12   2.0000      -1.386156       -37.7192 
  13   2.0000      -1.364764       -37.1371 
  14   2.0000      -1.363081       -37.0913 
  15   2.0000      -1.353325       -36.8258 
  16   2.0000      -1.337754       -36.4021 
  17   2.0000      -1.329993       -36.1910 
  18   2.0000      -1.311447       -35.6863 
  19   2.0000      -1.269780       -34.5525 
  20   2.0000      -0.771466       -20.9926 
  21   2.0000      -0.762743       -20.7553 
  22   2.0000      -0.750926       -20.4337 
  23   2.0000      -0.734889       -19.9974 
  24   2.0000      -0.731375       -19.9017 
  25   2.0000      -0.722638       -19.6640 
  26   2.0000      -0.717820       -19.5329 
  27   2.0000      -0.695823       -18.9343 
  28   2.0000      -0.686196       -18.6723 
  29   2.0000      -0.676369       -18.4049 
  30   2.0000      -0.657589       -17.8939 
  31   2.0000      -0.646505       -17.5923 
  32   2.0000      -0.628345       -17.0981 
  33   2.0000      -0.612159       -16.6577 
  34   2.0000      -0.599353       -16.3092 
  35   2.0000      -0.593291       -16.1443 
  36   2.0000      -0.588680       -16.0188 
  37   2.0000      -0.573146       -15.5961 
  38   2.0000      -0.564623       -15.3642 
  39   2.0000      -0.550113       -14.9693 
  40   2.0000      -0.539574       -14.6826 
  41   2.0000      -0.532793       -14.4980 
  42   2.0000      -0.524962       -14.2849 
  43   2.0000      -0.523217       -14.2374 
  44   2.0000      -0.517391       -14.0789 
  45   2.0000      -0.499761       -13.5992 
  46   2.0000      -0.494597       -13.4587 
  47   2.0000      -0.472664       -12.8619 
  48   2.0000      -0.471910       -12.8413 
  49   2.0000      -0.436942       -11.8898 
  50   0.0000       0.009319         0.2536 
  51   0.0000       0.019601         0.5334 
  52   0.0000       0.027614         0.7514 
  53   0.0000       0.037218         1.0128 
  54   0.0000       0.046510         1.2656 
  55   0.0000       0.047492         1.2923 
  56   0.0000       0.056404         1.5348 
  57   0.0000       0.060994         1.6597 
  58   0.0000       0.064795         1.7632 
  59   0.0000       0.068273         1.8578 
  60   0.0000       0.073695         2.0053 
  61   0.0000       0.077174         2.1000 
  62   0.0000       0.080050         2.1783 
  63   0.0000       0.086384         2.3506 
  64   0.0000       0.088261         2.4017 
  65   0.0000       0.090141         2.4529 
  66   0.0000       0.096509         2.6261 
  67   0.0000       0.097665         2.6576 
  68   0.0000       0.106752         2.9049 
  69   0.0000       0.110856         3.0165 
  70   0.0000       0.136284         3.7085 
  71   0.0000       0.141528         3.8512 
  72   0.0000       0.144180         3.9233 
  73   0.0000       0.149555         4.0696 
  74   0.0000       0.156473         4.2579 
  75   0.0000       0.165919         4.5149 
  76   0.0000       0.171449         4.6654 
  77   0.0000       0.175129         4.7655 
  78   0.0000       0.177112         4.8195 
  79   0.0000       0.180520         4.9122 
  80   0.0000       0.186386         5.0718 
  81   0.0000       0.191484         5.2106 
  82   0.0000       0.196195         5.3387 
  83   0.0000       0.200306         5.4506 
  84   0.0000       0.202233         5.5030 
  85   0.0000       0.207398         5.6436 
  86   0.0000       0.209433         5.6990 
  87   0.0000       0.213265         5.8032 
  88   0.0000       0.215106         5.8533 
  89   0.0000       0.219045         5.9605 
  90   0.0000       0.221072         6.0157 
  91   0.0000       0.228616         6.2209 
  92   0.0000       0.229711         6.2508 
  93   0.0000       0.231928         6.3111 
  94   0.0000       0.237678         6.4675 
  95   0.0000       0.238390         6.4869 
  96   0.0000       0.242784         6.6065 
  97   0.0000       0.244790         6.6611 
  98   0.0000       0.247564         6.7366 
  99   0.0000       0.254978         6.9383 
 100   0.0000       0.255732         6.9588 
 101   0.0000       0.258046         7.0218 
 102   0.0000       0.268188         7.2978 
 103   0.0000       0.269242         7.3264 
 104   0.0000       0.278583         7.5806 
 105   0.0000       0.283573         7.7164 
 106   0.0000       0.286126         7.7859 
 107   0.0000       0.291629         7.9356 
 108   0.0000       0.292931         7.9710 
 109   0.0000       0.302117         8.2210 
 110   0.0000       0.309441         8.4203 
 111   0.0000       0.315272         8.5790 
 112   0.0000       0.326996         8.8980 
 113   0.0000       0.335393         9.1265 
 114   0.0000       0.338544         9.2123 
 115   0.0000       0.341722         9.2987 
 116   0.0000       0.347770         9.4633 
 117   0.0000       0.350900         9.5485 
 118   0.0000       0.356162         9.6917 
 119   0.0000       0.358471         9.7545 
 120   0.0000       0.371452        10.1077 
 121   0.0000       0.375370        10.2143 
 122   0.0000       0.382057        10.3963 
 123   0.0000       0.385656        10.4942 
 124   0.0000       0.388260        10.5651 
 125   0.0000       0.391576        10.6553 
 126   0.0000       0.395607        10.7650 
 127   0.0000       0.402279        10.9466 
 128   0.0000       0.405004        11.0207 
 129   0.0000       0.408940        11.1278 
 130   0.0000       0.411798        11.2056 
 131   0.0000       0.418980        11.4010 
 132   0.0000       0.423113        11.5135 
 133   0.0000       0.423596        11.5266 
 134   0.0000       0.427872        11.6430 
 135   0.0000       0.428802        11.6683 
 136   0.0000       0.432685        11.7740 
 137   0.0000       0.435707        11.8562 
 138   0.0000       0.442302        12.0356 
 139   0.0000       0.446224        12.1424 
 140   0.0000       0.447561        12.1788 
 141   0.0000       0.450445        12.2572 
 142   0.0000       0.457603        12.4520 
 143   0.0000       0.459788        12.5115 
 144   0.0000       0.461342        12.5538 
 145   0.0000       0.464159        12.6304 
 146   0.0000       0.469485        12.7753 
 147   0.0000       0.471600        12.8329 
 148   0.0000       0.474556        12.9133 
 149   0.0000       0.475765        12.9462 
 150   0.0000       0.477601        12.9962 
 151   0.0000       0.479745        13.0545 
 152   0.0000       0.486821        13.2471 
 153   0.0000       0.491009        13.3610 
 154   0.0000       0.492867        13.4116 
 155   0.0000       0.494884        13.4665 
 156   0.0000       0.498925        13.5764 
 157   0.0000       0.506431        13.7807 
 158   0.0000       0.507384        13.8066 
 159   0.0000       0.510101        13.8806 
 160   0.0000       0.517327        14.0772 
 161   0.0000       0.524281        14.2664 
 162   0.0000       0.528023        14.3682 
 163   0.0000       0.534653        14.5486 
 164   0.0000       0.536437        14.5972 
 165   0.0000       0.538371        14.6498 
 166   0.0000       0.542072        14.7505 
 167   0.0000       0.546785        14.8788 
 168   0.0000       0.552599        15.0370 
 169   0.0000       0.557861        15.1802 
 170   0.0000       0.559766        15.2320 
 171   0.0000       0.568575        15.4717 
 172   0.0000       0.577063        15.7027 
 173   0.0000       0.581067        15.8116 
 174   0.0000       0.588691        16.0191 
 175   0.0000       0.591591        16.0980 
 176   0.0000       0.594905        16.1882 
 177   0.0000       0.599745        16.3199 
 178   0.0000       0.608208        16.5502 
 179   0.0000       0.611375        16.6363 
 180   0.0000       0.618472        16.8295 
 181   0.0000       0.624498        16.9935 
 182   0.0000       0.626715        17.0538 
 183   0.0000       0.634673        17.2703 
 184   0.0000       0.649685        17.6788 
 185   0.0000       0.651815        17.7368 
 186   0.0000       0.664233        18.0747 
 187   0.0000       0.672021        18.2866 
 188   0.0000       0.675465        18.3803 
 189   0.0000       0.683295        18.5934 
 190   0.0000       0.693333        18.8666 
 191   0.0000       0.697030        18.9671 
 192   0.0000       0.705294        19.1920 
 193   0.0000       0.706792        19.2328 
 194   0.0000       0.712215        19.3804 
 195   0.0000       0.712763        19.3953 
 196   0.0000       0.723766        19.6947 
 197   0.0000       0.733752        19.9664 
 198   0.0000       0.735083        20.0026 
 199   0.0000       0.746585        20.3156 
 200   0.0000       0.754281        20.5250 
 201   0.0000       0.756706        20.5910 
 202   0.0000       0.760274        20.6881 
 203   0.0000       0.767863        20.8946 
 204   0.0000       0.773213        21.0402 
 205   0.0000       0.774461        21.0742 
 206   0.0000       0.780929        21.2502 
 207   0.0000       0.791249        21.5310 
 208   0.0000       0.793115        21.5818 
 209   0.0000       0.806648        21.9500 
 210   0.0000       0.808104        21.9896 
 211   0.0000       0.812117        22.0988 
 212   0.0000       0.818082        22.2612 
 213   0.0000       0.825768        22.4703 
 214   0.0000       0.829074        22.5602 
 215   0.0000       0.832743        22.6601 
 216   0.0000       0.836636        22.7660 
 217   0.0000       0.845608        23.0102 
 218   0.0000       0.849694        23.1214 
 219   0.0000       0.855309        23.2741 
 220   0.0000       0.858124        23.3507 
 221   0.0000       0.866456        23.5775 
 222   0.0000       0.869305        23.6550 
 223   0.0000       0.877569        23.8799 
 224   0.0000       0.880665        23.9641 
 225   0.0000       0.884407        24.0659 
 226   0.0000       0.889152        24.1951 
 227   0.0000       0.897161        24.4130 
 228   0.0000       0.902852        24.5679 
 229   0.0000       0.907250        24.6875 
 230   0.0000       0.916222        24.9317 
 231   0.0000       0.920696        25.0534 
 232   0.0000       0.923311        25.1246 
 233   0.0000       0.930099        25.3093 
 234   0.0000       0.930246        25.3133 
 235   0.0000       0.932059        25.3626 
 236   0.0000       0.938189        25.5294 
 237   0.0000       0.943958        25.6864 
 238   0.0000       0.947948        25.7950 
 239   0.0000       0.955875        26.0107 
 240   0.0000       0.959076        26.0978 
 241   0.0000       0.960689        26.1417 
 242   0.0000       0.966958        26.3123 
 243   0.0000       0.974563        26.5192 
 244   0.0000       0.978047        26.6140 
 245   0.0000       0.984916        26.8009 
 246   0.0000       0.989469        26.9248 
 247   0.0000       0.994316        27.0567 
 248   0.0000       0.995371        27.0854 
 249   0.0000       0.998252        27.1638 
 250   0.0000       1.005039        27.3485 
 251   0.0000       1.007915        27.4268 
 252   0.0000       1.011576        27.5264 
 253   0.0000       1.020935        27.7811 
 254   0.0000       1.023605        27.8537 
 255   0.0000       1.025694        27.9105 
 256   0.0000       1.031429        28.0666 
 257   0.0000       1.037975        28.2447 
 258   0.0000       1.038871        28.2691 
 259   0.0000       1.042089        28.3567 
 260   0.0000       1.046937        28.4886 
 261   0.0000       1.050172        28.5766 
 262   0.0000       1.053902        28.6781 
 263   0.0000       1.060436        28.8559 
 264   0.0000       1.063225        28.9318 
 265   0.0000       1.066749        29.0277 
 266   0.0000       1.075009        29.2525 
 267   0.0000       1.076925        29.3046 
 268   0.0000       1.080417        29.3997 
 269   0.0000       1.085496        29.5379 
 270   0.0000       1.088220        29.6120 
 271   0.0000       1.093636        29.7593 
 272   0.0000       1.102415        29.9982 
 273   0.0000       1.104632        30.0586 
 274   0.0000       1.107228        30.1292 
 275   0.0000       1.109002        30.1775 
 276   0.0000       1.121798        30.5257 
 277   0.0000       1.126817        30.6622 
 278   0.0000       1.128995        30.7215 
 279   0.0000       1.135851        30.9081 
 280   0.0000       1.142845        31.0984 
 281   0.0000       1.147290        31.2193 
 282   0.0000       1.153315        31.3833 
 283   0.0000       1.155067        31.4310 
 284   0.0000       1.158851        31.5339 
 285   0.0000       1.168526        31.7972 
 286   0.0000       1.172673        31.9101 
 287   0.0000       1.177906        32.0524 
 288   0.0000       1.184630        32.2354 
 289   0.0000       1.192008        32.4362 
 290   0.0000       1.192233        32.4423 
 291   0.0000       1.198759        32.6199 
 292   0.0000       1.202648        32.7257 
 293   0.0000       1.208341        32.8806 
 294   0.0000       1.218099        33.1462 
 295   0.0000       1.224089        33.3092 
 296   0.0000       1.227226        33.3945 
 297   0.0000       1.235446        33.6182 
 298   0.0000       1.240322        33.7509 
 299   0.0000       1.247920        33.9576 
 300   0.0000       1.250981        34.0409 
 301   0.0000       1.255759        34.1709 
 302   0.0000       1.258340        34.2412 
 303   0.0000       1.265386        34.4329 
 304   0.0000       1.272923        34.6380 
 305   0.0000       1.278831        34.7988 
 306   0.0000       1.284311        34.9479 
 307   0.0000       1.291830        35.1525 
 308   0.0000       1.300453        35.3871 
 309   0.0000       1.301768        35.4229 
 310   0.0000       1.305899        35.5353 
 311   0.0000       1.313293        35.7365 
 312   0.0000       1.314834        35.7785 
 313   0.0000       1.317883        35.8614 
 314   0.0000       1.323094        36.0032 
 315   0.0000       1.328970        36.1631 
 316   0.0000       1.337269        36.3890 
 317   0.0000       1.338154        36.4130 
 318   0.0000       1.346849        36.6496 
 319   0.0000       1.353765        36.8378 
 320   0.0000       1.358850        36.9762 
 321   0.0000       1.365392        37.1542 
 322   0.0000       1.371934        37.3322 
 323   0.0000       1.374480        37.4015 
 324   0.0000       1.379667        37.5426 
 325   0.0000       1.388343        37.7787 
 326   0.0000       1.393344        37.9148 
 327   0.0000       1.397792        38.0359 
 328   0.0000       1.398080        38.0437 
 329   0.0000       1.412313        38.4310 
 330   0.0000       1.419759        38.6336 
 331   0.0000       1.424774        38.7701 
 332   0.0000       1.429558        38.9003 
 333   0.0000       1.437149        39.1068 
 334   0.0000       1.443372        39.2761 
 335   0.0000       1.444990        39.3202 
 336   0.0000       1.452016        39.5114 
 337   0.0000       1.459979        39.7281 
 338   0.0000       1.463823        39.8326 
 339   0.0000       1.472022        40.0558 
 340   0.0000       1.476682        40.1826 
 341   0.0000       1.481280        40.3077 
 342   0.0000       1.490528        40.5593 
 343   0.0000       1.494865        40.6773 
 344   0.0000       1.504579        40.9417 
 345   0.0000       1.505190        40.9583 
 346   0.0000       1.518470        41.3197 
 347   0.0000       1.524625        41.4872 
 348   0.0000       1.533202        41.7205 
 349   0.0000       1.535883        41.7935 
 350   0.0000       1.544549        42.0293 
 351   0.0000       1.555304        42.3220 
 352   0.0000       1.561212        42.4827 
 353   0.0000       1.567897        42.6646 
 354   0.0000       1.569465        42.7073 
 355   0.0000       1.578324        42.9484 
 356   0.0000       1.585413        43.1413 
 357   0.0000       1.590000        43.2661 
 358   0.0000       1.594628        43.3920 
 359   0.0000       1.602879        43.6165 
 360   0.0000       1.608138        43.7597 
 361   0.0000       1.613477        43.9049 
 362   0.0000       1.622079        44.1390 
 363   0.0000       1.630153        44.3587 
 364   0.0000       1.640156        44.6309 
 365   0.0000       1.645913        44.7876 
 366   0.0000       1.655771        45.0558 
 367   0.0000       1.658946        45.1422 
 368   0.0000       1.665717        45.3265 
 369   0.0000       1.675088        45.5815 
 370   0.0000       1.676883        45.6303 
 371   0.0000       1.680724        45.7348 
 372   0.0000       1.686418        45.8898 
 373   0.0000       1.693515        46.0829 
 374   0.0000       1.700664        46.2774 
 375   0.0000       1.705011        46.3957 
 376   0.0000       1.712437        46.5978 
 377   0.0000       1.718037        46.7502 
 378   0.0000       1.720605        46.8200 
 379   0.0000       1.723181        46.8902 
 380   0.0000       1.734891        47.2088 
 381   0.0000       1.741533        47.3895 
 382   0.0000       1.749915        47.6176 
 383   0.0000       1.761135        47.9229 
 384   0.0000       1.768416        48.1210 
 385   0.0000       1.775321        48.3089 
 386   0.0000       1.778302        48.3901 
 387   0.0000       1.786476        48.6125 
 388   0.0000       1.793021        48.7906 
 389   0.0000       1.803549        49.0771 
 390   0.0000       1.810950        49.2785 
 391   0.0000       1.814795        49.3831 
 392   0.0000       1.819653        49.5153 
 393   0.0000       1.822978        49.6058 
 394   0.0000       1.829319        49.7783 
 395   0.0000       1.833709        49.8978 
 396   0.0000       1.849320        50.3226 
 397   0.0000       1.851438        50.3802 
 398   0.0000       1.859613        50.6026 
 399   0.0000       1.874140        50.9980 
 400   0.0000       1.885063        51.2952 
 401   0.0000       1.895361        51.5754 
 402   0.0000       1.901379        51.7392 
 403   0.0000       1.904007        51.8107 
 404   0.0000       1.917267        52.1715 
 405   0.0000       1.926823        52.4315 
 406   0.0000       1.934251        52.6336 
 407   0.0000       1.940145        52.7940 
 408   0.0000       1.944004        52.8990 
 409   0.0000       1.958892        53.3042 
 410   0.0000       1.968495        53.5655 
 411   0.0000       1.974680        53.7338 
 412   0.0000       1.978261        53.8312 
 413   0.0000       1.988186        54.1013 
 414   0.0000       2.003858        54.5277 
 415   0.0000       2.009353        54.6773 
 416   0.0000       2.014692        54.8226 
 417   0.0000       2.019039        54.9408 
 418   0.0000       2.028064        55.1864 
 419   0.0000       2.033430        55.3324 
 420   0.0000       2.049695        55.7750 
 421   0.0000       2.052347        55.8472 
 422   0.0000       2.055197        55.9247 
 423   0.0000       2.073737        56.4292 
 424   0.0000       2.080967        56.6260 
 425   0.0000       2.088620        56.8342 
 426   0.0000       2.096626        57.0521 
 427   0.0000       2.107745        57.3547 
 428   0.0000       2.120507        57.7019 
 429   0.0000       2.126009        57.8516 
 430   0.0000       2.130487        57.9735 
 431   0.0000       2.151765        58.5525 
 432   0.0000       2.158150        58.7263 
 433   0.0000       2.166184        58.9449 
 434   0.0000       2.187266        59.5185 
 435   0.0000       2.198195        59.8159 
 436   0.0000       2.205778        60.0223 
 437   0.0000       2.219352        60.3916 
 438   0.0000       2.232434        60.7476 
 439   0.0000       2.247978        61.1706 
 440   0.0000       2.249013        61.1988 
 441   0.0000       2.265141        61.6376 
 442   0.0000       2.268705        61.7346 
 443   0.0000       2.299371        62.5691 
 444   0.0000       2.320916        63.1553 
 445   0.0000       2.333049        63.4855 
 446   0.0000       2.342607        63.7456 
 447   0.0000       2.356684        64.1286 
 448   0.0000       2.369408        64.4749 
 449   0.0000       2.378287        64.7165 
 450   0.0000       2.396875        65.2223 
 451   0.0000       2.412592        65.6500 
 452   0.0000       2.418330        65.8061 
 453   0.0000       2.424966        65.9867 
 454   0.0000       2.429119        66.0997 
 455   0.0000       2.446172        66.5637 
 456   0.0000       2.449484        66.6539 
 457   0.0000       2.462550        67.0094 
 458   0.0000       2.483701        67.5849 
 459   0.0000       2.486450        67.6597 
 460   0.0000       2.495306        67.9007 
 461   0.0000       2.508419        68.2575 
 462   0.0000       2.516675        68.4822 
 463   0.0000       2.522505        68.6408 
 464   0.0000       2.524804        68.7034 
 465   0.0000       2.547783        69.3287 
 466   0.0000       2.549152        69.3659 
 467   0.0000       2.553440        69.4826 
 468   0.0000       2.563635        69.7600 
 469   0.0000       2.566266        69.8316 
 470   0.0000       2.574518        70.0562 
 471   0.0000       2.577001        70.1238 
 472   0.0000       2.586564        70.3840 
 473   0.0000       2.590441        70.4895 
 474   0.0000       2.598878        70.7191 
 475   0.0000       2.603537        70.8458 
 476   0.0000       2.614709        71.1499 
 477   0.0000       2.625221        71.4359 
 478   0.0000       2.630040        71.5670 
 479   0.0000       2.638851        71.8068 
 480   0.0000       2.642488        71.9058 
 481   0.0000       2.649601        72.0993 
 482   0.0000       2.656078        72.2756 
 483   0.0000       2.662761        72.4574 
 484   0.0000       2.667361        72.5826 
 485   0.0000       2.674195        72.7686 
 486   0.0000       2.682042        72.9821 
 487   0.0000       2.684360        73.0452 
 488   0.0000       2.691668        73.2440 
 489   0.0000       2.694264        73.3147 
 490   0.0000       2.703471        73.5652 
 491   0.0000       2.714507        73.8655 
 492   0.0000       2.720280        74.0226 
 493   0.0000       2.724420        74.1352 
 494   0.0000       2.728220        74.2386 
 495   0.0000       2.738197        74.5101 
 496   0.0000       2.749165        74.8086 
 497   0.0000       2.752489        74.8990 
 498   0.0000       2.762885        75.1819 
 499   0.0000       2.763976        75.2116 
 500   0.0000       2.769688        75.3670 
 501   0.0000       2.781631        75.6920 
 502   0.0000       2.785842        75.8066 
 503   0.0000       2.799455        76.1770 
 504   0.0000       2.802440        76.2583 
 505   0.0000       2.806141        76.3590 
 506   0.0000       2.815817        76.6223 
 507   0.0000       2.825219        76.8781 
[...]
   TCutDO    ...     1.0e-02
   TCutCMO   ...     1.0e-03
   TCutCPAO  ...     1.0e-03

Thresholds for map construction and integral transformation for weak Triples:
   TCutMKN   ...     1.0e-01
   TCutDO    ...     2.0e-02
   TCutCMO   ...     1.0e-03
   TCutCPAO  ...     1.0e-03

--------------------------------
LOCAL RI TRANSFORMATION (IAVPAO)
--------------------------------

Orbital window:       1 to 4
Number of PAOs:     920
Basis functions:    920 (320 shells)
Aux. functions:    1980 (560 shells)
Use SHARK:           on

Processing maps (0.0 sec)
Average map sizes:
   Aux shells -> MOs               1.8
   Aux shells -> PAOs            393.3
   MOs        -> AO shells       320.0
   PAOs       -> AO shells       229.9

Calculating integrals (5.2 sec, 23.962 MB)
Sorting integrals (0.3 sec, 23.952 MB)
Total time for the integral transformation: 5.6 sec
--------------------------------
INITIAL GUESS AND PNO GENERATION
--------------------------------

PNO truncation parameters                   .... 
    ScaleTCutPNO       =        1.000e-02
    PAOOverlapThresh   =        1.000e-08

    TCutPairs          =        1.000e-05
    TCutPNO            =        1.000e-07
    TCutPNOSingles     =        3.000e-09
    TCutMP2Pairs       =        1.000e-06
    TCutMKN            =        1.000e-03
    TCutDO             =        5.000e-03

Pair selection                          .... not used
Type of local MP2 treatment                 .... full local PMP2
Strategy for PNO selection                  .... occupation number selection
Pair density normalization                  .... MP2 norm
Spin component scaling                      .... not used

PASS-1: Formation of initial guess LMP2 amplitudes
Initial amplitudes guess done. Entering LMP2 iteration loop:
   Max. no of iterations          ...  50
   Energy convergence tolerance   ...    1.0e-07
   Residual convergence tolerance ...    5.0e-07
   Fock matrix cutoff             ...    1.0e-05 Eh
   DIIS convergence acceleration parameters:
        Max # vectors in DIIS     ... 7
        Start iteration of DIIS   ... 0
        Levelshift                ... 2.000e-01
        Damping factor 1          ... 5.000e-01
        Damping factor 2          ... 1.000e+00
   L-MP2 PNO cut-off              ...   1.0e-09
   L-MP2 PNO cut-off (core)       ...   1.0e-11
                           *** Turning on DIIS ***
LMP2-Iter=   0:  ELMP2= -0.266803837679  DE=   5.0e-03 RMAX=   4.7e-03
LMP2-Iter=   1:  ELMP2= -0.269511999578  DE=   2.7e-03 RMAX=   2.3e-03
LMP2-Iter=   2:  ELMP2= -0.269906961505  DE=   3.9e-04 RMAX=   4.8e-04
LMP2-Iter=   3:  ELMP2= -0.269959294023  DE=   5.2e-05 RMAX=   1.5e-04
LMP2-Iter=   4:  ELMP2= -0.269963636418  DE=   4.3e-06 RMAX=   2.1e-05
LMP2-Iter=   5:  ELMP2= -0.269963637100  DE=   6.8e-10 RMAX=   5.8e-06
LMP2-Iter=   6:  ELMP2= -0.269963620231  DE=   1.7e-08 RMAX=   5.6e-07
LMP2-Iter=   7:  ELMP2= -0.269963616992  DE=   3.2e-09 RMAX=   1.6e-07
LMP2-Iter=   8:  ELMP2= -0.269963618549  DE=   1.6e-09 RMAX=   1.7e-08 => CONVERGED
PASS-2: Formation of Pair natural orbitals
   .... Finished loop over pairs

 PNO Occupation Number Statistics: 
  | Av. % of trace(Dij) retained        ...  99.993170170375
  | sigma^2 in % of trace(Dij) retained ...   2.07e-07
  | Av. % of trace(Di) retained         ...  99.999793800561
  | sigma^2 in % of trace(Di) retained  ...   1.04e-09
 Distributions of % trace(Dij) recovered:
  |       >= 99.9  ...    10 (100.0 % of all pairs)
 Distributions of % trace(Di) recovered :
  |       >= 99.9  ...     4 (100.0 % of all I-pairs )

Making pair pair interaction lists          ... done

                       ===========================
                         10 OF   10 PAIRS ARE KEPT
                       ===========================

Total time spent in the initial guess                 ...    10.235 sec
L-MP2 correlation energy (all non-screened pairs)     ...      -0.269963618549 Eh
L-MP2 PNO error correction                            ...      -0.000000447894 Eh
                                                          --------------------
Initial total L-MP2 energy (non-screened pairs)       ...      -0.269964066443 Eh

Initial PNO correlation energy                        ...      -0.269918097254 Eh
sum of pair energies estimated for screened out pairs ...       0.000000000000 Eh
sum of MP2 pair energies for pairs that were not kept ...       0.000000000000 Eh
sum of PNO error estimates for the kept pairs         ...      -0.000045969189 Eh
                                                          --------------------
sum of all corrections                                         -0.000045969189
Initial total correlation energy                               -0.269964066443
Thresholds for map construction and integral transformation for fine MP2 and CCSD(T) calculation:
   TCutMKN   ...     1.0e-03
   TCutDO    ...     5.0e-03
   TCutPairs ...     1.0e-05
   TCutCMO   ...     1.0e-03
   TCutCPAO  ...     1.0e-03

Time for aux screen maps:            0.005
Time for maps after fine MP2:            0.017
-----------------------------
LOCAL RI TRANSFORMATION (IJV)
-----------------------------

Orbital window:       1 to 4
Basis functions:    920 (320 shells)
Aux. functions:    1980 (560 shells)
Use SHARK:           on

Processing maps (0.0 sec)
Average map sizes:
   Aux shells -> MOs(i)            1.8
   Aux shells -> MOs(j)            1.8
   MOs        -> AO shells       320.0

Calculating integrals (4.4 sec, 0.120 MB)
Sorting integrals (0.0 sec, 0.110 MB)
Total time for the integral transformation: 4.4 sec
--------------------------------
LOCAL RI TRANSFORMATION (VABPAO)
--------------------------------

Number of PAOs:     920
Basis functions:    920 (320 shells)
Aux. functions:    1980 (560 shells)
Use SHARK:           on

Processing maps (0.0 sec)
Average map sizes:
   Aux shells -> PAOs            393.3
   PAOs       -> AO shells       229.9

Calculating integrals (20.3 sec, 5233.475 MB)
Finished


-------------------------------------
Pair Pair Term precalculation with     
RI-(ij|mn) and (im|jn) transformation  
ON THE FLY                             
-------------------------------------

   IBatch   1 (of   1)              ... done (   18.682 sec)
Total EXT                           ...          18.682 sec

---------------------
RI-PNO TRANSFORMATION
---------------------

Total Number of PNOs                   ...   628
Average number of PNOs per pair        ...    62
Maximal number of PNOs per pair        ...    67
   #pairs with  1 -  5 PNOs   :    0
   #pairs with  6 - 10 PNOs   :    0
   #pairs with 11 - 15 PNOs   :    0
   #pairs with 16 - 20 PNOs   :    0
   #pairs with 21 - 25 PNOs   :    0
   #pairs with 26 - 30 PNOs   :    0
   #pairs with 31 - 35 PNOs   :    0
   #pairs with 36 - 40 PNOs   :    0
   #pairs with 41 - 45 PNOs   :    0
   #pairs with 46 - 50 PNOs   :    0
   #pairs with 56 - 60 PNOs   :    4
   #pairs with 66 - 70 PNOs   :    6

Generation of (ij|ab)[P] integrals            ... on
Generation of (ia|bc)[P],(ja|bc)[P] integrals ... on
Storage of 3 and 4 external integrals         ... on
Generation of ALL (ka|bc)[P] integrals        ... on
Keep RI integrals in memory                   ... off

Ibatch:  1 (of  1)
Starting 2-4 index PNO integral generation ... done

Timings:
Total PNO integral transformation time     ...         17.028 sec
Size of the 3-external file                ...        19 MB
Size of the 4-external file                ...       157 MB
Size of the IKJL file                      ...         0 MB
Size of the all 3-external file            ...        38 MB
Size of the 1-external file                ...         0 MB

Making pair/pair overlap matrices          ... done (    0.219 sec)
Size of the pair overlap file              ... 3 MB
Redoing the guess amplitudes               ... done (    0.005 sec)

-------------------------
FINAL STARTUP INFORMATION
-------------------------

E(0)                                       ...    -76.059606866
E(L-MP2)                                   ...     -0.269964066
E(L-MP2) including corrections             ...     -0.269964066
Initial E(tot)                             ...    -76.329570933
<T|T>                                      ...      0.058190185
Number of pairs included                   ... 10
Total number of pairs                      ... 10

------------------------------------------------
                  RHF COUPLED CLUSTER ITERATIONS
------------------------------------------------

Number of PNO amplitudes to be optimized   ...        39648
Number of non-PNO amplitudes               ...      8372250
Untruncated number of regular amplitudes   ...      8372250

Iter       E(tot)           E(Corr)          Delta-E          Residual     Time
  0    -76.321367557     -0.261714722      0.008249345      0.016804126    2.36
                           *** Turning on DIIS ***
  1    -76.327026348     -0.267373513     -0.005658791      0.007770617    2.40
  2    -76.332771124     -0.273118288     -0.005744776      0.002452472    2.44
  3    -76.333915557     -0.274262722     -0.001144434      0.001164279    2.55
  4    -76.334221040     -0.274568205     -0.000305483      0.000380918    2.43
  5    -76.334292148     -0.274639313     -0.000071108      0.000137513    2.48
  6    -76.334306952     -0.274654116     -0.000014804      0.000043957    2.36
  7    -76.334309250     -0.274656415     -0.000002298      0.000015471    2.50
               --- The Coupled-Cluster iterations have converged ---

----------------------
COUPLED CLUSTER ENERGY
----------------------

E(0)                                       ...    -76.059606866
E(CORR)(strong-pairs)                      ...     -0.274656415
E(CORR)(weak-pairs)                        ...     -0.000045969
E(CORR)(corrected)                         ...     -0.274702384
E(TOT)                                     ...    -76.334309250
Singles Norm <S|S>**1/2                    ...      0.028018372  
T1 diagnostic                              ...      0.009905991  

------------------
LARGEST AMPLITUDES
------------------
   4->  5   4->  5       0.039258
   3->  5   3->  5       0.037712
   3-> 12   3-> 12       0.032443
   3->  5   3-> 12       0.030830
   3-> 12   3->  5       0.030830
   4->  5   4-> 12       0.030801
   4-> 12   4->  5       0.030801
   4-> 12   4-> 12       0.030785
   1->  6   1->  6       0.021709
   2->  6   2->  6       0.021665
   1-> 18   1->  6       0.015964
   1->  6   1-> 18       0.015964
   1-> 18   1-> 18       0.015332
   1->  6  -1-> -1       0.014796
   2->  6  -1-> -1       0.014091
   2->  7   2->  7       0.013960


-------------------------------------------
DLPNO BASED TRIPLES CORRECTION
-------------------------------------------

Singles multiplier          ...  1.000000
TCutTNO                     ... 1.000e-09
TCutMP2Pairs                ... 1.000e-06
TCutDOStrong                ... 1.000e-02
TCutMKNStrong               ... 1.000e-02
TCutDOWeak                  ... 2.000e-02
TCutMKNWeak                 ... 1.000e-01

Fragment selection                          .... not used
Fock matrix occ-virt block is zero --> Setting DT_in_Triples to false.
Number of Triples that are to be computed   ...        16

 . . . . . . . . .
10% done  
20% done  
30% done  
40% done  
50% done  
60% done  
70% done  
80% done  
90% done               (      5.878 sec)
Triples timings:
Total time for T0               ...     7.586 sec
Total time for Iterative (T)    ...     0.000 sec
Total time of overall (T)       ...     9.851 sec

Triples List generation         ...     0.000 sec
TNO generation                  ...     1.680 sec
Pair density generation         ...     0.001 sec
Look up tables                  ...     0.000 sec
Generating 3-index integrals    ...     5.366 sec
  Make 4-ind.int. from 3-ind.int...     0.140 sec
  Projecting amplitudes (D + S) ...     0.178 sec
  Downprojecting integrals      ...     0.000 sec
  Energy contr. (sum over a,b,c)...     0.047 sec
Fitting ET(->0)                 ...     0.000 sec

Everything after 3-index        ...     0.512 sec

Timing details:
 TNO integrals                  ...     5.497 sec
   Reading 3-index integrals    ...     0.745 sec
   Sorting integrals            ...     0.644 sec
       Sorting integrals 1      ...     0.000 sec
       Sorting integrals 2      ...     0.578 sec
       Sorting integrals 3      ...     0.004 sec
       Sorting integrals 4      ...     0.000 sec
       Sorting integrals 5      ...     0.002 sec
       Sorting integrals 6      ...     0.060 sec
   Calculating local VM**-1/2   ...     0.002 sec
   Orthogonal. integrals        ...     0.007 sec
   Multipl. 3-index integrals   ...     4.099 sec
   All concerning IRIab (w/TNO) ...     0.066 sec

 Calculate W0/W1                ...     0.148 sec
 W 3-ext contribution           ...     0.098 sec
 W 3-int contribution           ...     0.011 sec
 Sorting W                      ...     0.032 sec

 V exchange contribution        ...     0.015 sec

 Timings for Triples without generation
     of 3-index integrals       ...     0.512 sec
       0 weak pairs             ...     0.512 sec
       1 weak pair              ...     0.000 sec
       2 weak pairs             ...     0.000 sec
       3 weak pairs             ...     0.000 sec
  Extra time for extrapolation  ...     0.000 sec

Number of Triples   (0, 1, 2, 3 weak pairs; overall):     16       0       0       0  (    16)
Number of Atoms     (0, 1, 2, 3 weak pairs; overall):   23.9     0.0     0.0     0.0  (    30)
Number of PAOs      (0, 1, 2, 3 weak pairs; overall):  723.1     0.0     0.0     0.0  (   920)
Number of AuxFcns   (0, 1, 2, 3 weak pairs; overall):  251.9     0.0     0.0     0.0  (  1980)
Number of TNOs      (0, 1, 2, 3 weak pairs         ):   93.8     0.0     0.0     0.0
Aver. Number of NTNO, Atoms, PAOs, AuxFcns / Triples:     16    93.8    23.9   723.1   251.9

Triples Correction (T)                     ...     -0.008441612
Final correlation energy                   ...     -0.283143996
E(CCSD)                                    ...    -76.334309250
E(CCSD(T))                                 ...    -76.342750862



------------------------------------------------------------------------------- 
                                     TIMINGS                                   
------------------------------------------------------------------------------- 


Total execution time                   ...      364.703 sec

Localization of occupied MO's          ...        1.221 sec (  0.3%)
Fock Matrix Formation                  ...      248.789 sec ( 68.2%)
Global overlap, Fock, MKN matrices     ...        1.179 sec (  0.3%)
Differential overlap integrals         ...        2.755 sec (  0.8%)
Organizing maps                        ...        0.090 sec (  0.0%)
RI 3-index integral generations        ...       32.486 sec (  8.9%)
RI-PNO integral transformation         ...       36.190 sec (  9.9%)
Initial Guess                          ...       12.058 sec (  3.3%)
DIIS Solver                            ...        2.421 sec (  0.7%)
State Vector Update                    ...        0.002 sec (  0.0%)
Sigma-vector construction              ...       19.095 sec (  5.2%)
  <D|H|D>(0-ext)                       ...        0.073 sec (  0.4% of sigma)
  <D|H|D>(2-ext Fock)                  ...        0.002 sec (  0.0% of sigma)
  <D|H|D>(2-ext)                       ...        1.568 sec (  8.2% of sigma)
  <D|H|D>(4-ext)                       ...        2.980 sec ( 15.6% of sigma)
  <D|H|D>(4-ext-corr)                  ...        8.284 sec ( 43.4% of sigma)
  CCSD doubles correction              ...        0.027 sec (  0.1% of sigma)
  <S|H|S>                              ...        0.684 sec (  3.6% of sigma)
  <S|H|D>(1-ext)                       ...        0.017 sec (  0.1% of sigma)
  <S|H|D>(3-ext)                       ...        0.052 sec (  0.3% of sigma)
  Fock-dressing                        ...        1.305 sec (  6.8% of sigma)
  Singles amplitudes                   ...        0.094 sec (  0.5% of sigma)
  (ik|jl)-dressing                     ...        0.432 sec (  2.3% of sigma)
  (ij|ab),(ia|jb)-dressing             ...        0.933 sec (  4.9% of sigma)
  Pair energies                        ...        0.002 sec (  0.0% of sigma)
Total Time for computing (T)           ...        9.857 sec (  2.7% of ALL)


Maximum memory used throughout the entire MDCI-calculation: 571.4 MB

-------------------------   --------------------
FINAL SINGLE POINT ENERGY       -76.342750861861
-------------------------   --------------------


                            ***************************************
                            *     ORCA property calculations      *
                            ***************************************


  WARNING: The energy has been calculated at the MDCI level but the densities
           used in the property calculations are still SCF densities
           MDCI response densities have not been calculated 
           use %mdci Density linearized end
           or  %mdci Density unrelaxed end
           or  %mdci Density orbopt end

                                    ---------------------
                                    Active property flags
                                    ---------------------
   (+) Dipole Moment


------------------------------------------------------------------------------
                       ORCA ELECTRIC PROPERTIES CALCULATION
------------------------------------------------------------------------------

Dipole Moment Calculation                       ... on
Quadrupole Moment Calculation                   ... off
Polarizability Calculation                      ... off
GBWName                                         ... CP_job5.gbw
Electron density                                ... CP_job5.scfp
The origin for moment calculation is the CENTER OF MASS  = (-9.716960, 18.181019  5.615004)

-------------
DIPOLE MOMENT
-------------
                                X             Y             Z
Electronic contribution:     -0.02124       0.14916      -0.15236
Nuclear contribution   :      0.09985      -0.70115       0.72343
                        -----------------------------------------
Total Dipole Moment    :      0.07861      -0.55199       0.57107
                        -----------------------------------------
Magnitude (a.u.)       :      0.79812
Magnitude (Debye)      :      2.02866



--------------------
Rotational spectrum 
--------------------
 
Rotational constants in cm-1:    25.461416    14.763730     9.345037 
Rotational constants in MHz : 763314.053453 442605.493265 280157.158132 

 Dipole components along the rotational axes: 
x,y,z [a.u.] :     0.012085     0.798027     0.000287 
x,y,z [Debye]:     0.030717     2.028424     0.000730 

 

Timings for individual modules:

Sum of individual times         ...     1637.939 sec (=  27.299 min)
GTO integral calculation        ...        4.405 sec (=   0.073 min)   0.3 %
SCF iterations                  ...     1266.677 sec (=  21.111 min)  77.3 %
MDCI module                     ...      366.858 sec (=   6.114 min)  22.4 %

Energy for            dimer from job 1  =   -763.518481275
Energy for         fragment from job 2  =   -687.160261346
Energy for         fragment from job 3  =    -76.342023836
Energy for            ghost from job 4  =   -687.161130091
Energy for            ghost from job 5  =    -76.342750862


Energy for fragment            dimer:   -763.518481275 Eh
Energy for fragment         fragment:   -763.502285182 Eh   10.163 kcal/mol
Energy for fragment            ghost:   -763.503880953 Eh    9.162 kcal/mol

----------------------------
REACTION ENERGIES (kcal/mol)  10.163   9.162 
----------------------------

                             ****ORCA TERMINATED NORMALLY****
TOTAL RUN TIME: 0 days 7 hours 8 minutes 3 seconds 581 msec
