 Entering Gaussian System, Link 0=g16
 Input=CP_grain_mol33.com
 Output=CP_grain_mol33.log
 Initial command:
 /home/spantaleone/g16/l1.exe "/scratch/cnt0027/pag0797/spantaleone/GAUSSIAN/gauss_scratch/CP_grain_mol33/Gau-7215.inp" -scrdir="/scratch/cnt0027/pag0797/spantaleone/GAUSSIAN/gauss_scratch/CP_grain_mol33/"
 Entering Link 1 = /home/spantaleone/g16/l1.exe PID=      7216.
  
 Copyright (c) 1988-2017, Gaussian, Inc.  All Rights Reserved.
  
 This is part of the Gaussian(R) 16 program.  It is based on
 the Gaussian(R) 09 system (copyright 2009, Gaussian, Inc.),
 the Gaussian(R) 03 system (copyright 2003, Gaussian, Inc.),
 the Gaussian(R) 98 system (copyright 1998, Gaussian, Inc.),
 the Gaussian(R) 94 system (copyright 1995, Gaussian, Inc.),
 the Gaussian 92(TM) system (copyright 1992, Gaussian, Inc.),
 the Gaussian 90(TM) system (copyright 1990, Gaussian, Inc.),
 the Gaussian 88(TM) system (copyright 1988, Gaussian, Inc.),
 the Gaussian 86(TM) system (copyright 1986, Carnegie Mellon
 University), and the Gaussian 82(TM) system (copyright 1983,
 Carnegie Mellon University). Gaussian is a federally registered
 trademark of Gaussian, Inc.
  
 This software contains proprietary and confidential information,
 including trade secrets, belonging to Gaussian, Inc.
  
 This software is provided under written license and may be
 used, copied, transmitted, or stored only in accord with that
 written license.
  
 The following legend is applicable only to US Government
 contracts under FAR:
  
                    RESTRICTED RIGHTS LEGEND
  
 Use, reproduction and disclosure by the US Government is
 subject to restrictions as set forth in subparagraphs (a)
 and (c) of the Commercial Computer Software - Restricted
 Rights clause in FAR 52.227-19.
  
 Gaussian, Inc.
 340 Quinnipiac St., Bldg. 40, Wallingford CT 06492
  
  
 ---------------------------------------------------------------
 Warning -- This program may not be used in any manner that
 competes with the business of Gaussian, Inc. or will provide
 assistance to any competitor of Gaussian, Inc.  The licensee
 of this program is prohibited from giving any competitor of
 Gaussian, Inc. access to this program.  By using this program,
 the user acknowledges that Gaussian, Inc. is engaged in the
 business of creating and licensing software in the field of
 computational chemistry and represents and warrants to the
 licensee that it is not a competitor of Gaussian, Inc. and that
 it will not use this program in any manner prohibited above.
 ---------------------------------------------------------------
  

 Cite this work as:
 Gaussian 16, Revision B.01,
 M. J. Frisch, G. W. Trucks, H. B. Schlegel, G. E. Scuseria, 
 M. A. Robb, J. R. Cheeseman, G. Scalmani, V. Barone, 
 G. A. Petersson, H. Nakatsuji, X. Li, M. Caricato, A. V. Marenich, 
 J. Bloino, B. G. Janesko, R. Gomperts, B. Mennucci, H. P. Hratchian, 
 J. V. Ortiz, A. F. Izmaylov, J. L. Sonnenberg, D. Williams-Young, 
 F. Ding, F. Lipparini, F. Egidi, J. Goings, B. Peng, A. Petrone, 
 T. Henderson, D. Ranasinghe, V. G. Zakrzewski, J. Gao, N. Rega, 
 G. Zheng, W. Liang, M. Hada, M. Ehara, K. Toyota, R. Fukuda, 
 J. Hasegawa, M. Ishida, T. Nakajima, Y. Honda, O. Kitao, H. Nakai, 
 T. Vreven, K. Throssell, J. A. Montgomery, Jr., J. E. Peralta, 
 F. Ogliaro, M. J. Bearpark, J. J. Heyd, E. N. Brothers, K. N. Kudin, 
 V. N. Staroverov, T. A. Keith, R. Kobayashi, J. Normand, 
 K. Raghavachari, A. P. Rendell, J. C. Burant, S. S. Iyengar, 
 J. Tomasi, M. Cossi, J. M. Millam, M. Klene, C. Adamo, R. Cammi, 
 J. W. Ochterski, R. L. Martin, K. Morokuma, O. Farkas, 
 J. B. Foresman, and D. J. Fox, Gaussian, Inc., Wallingford CT, 2016.
 
 ******************************************
 Gaussian 16:  ES64L-G16RevB.01 20-Dec-2017
                23-Jan-2021 
 ******************************************
 %nosave
 %nproc=24
 Will use up to   24 processors via shared memory.
 %mem=24gb
 %chk=input
 -----------------------------------
 #P B97D3/aug-cc-pvtz Counterpoise=2
 -----------------------------------
 1/38=1,62=2,172=1/1;
 2/12=2,17=6,18=5,40=1/2;
 1/38=1,53=2,62=2,63=1/22;
 3/5=16,6=1,7=10,11=2,25=1,30=1,74=-59/1,2,3;
 4//1;
 5/5=2,38=5/2;
 6/7=2,8=2,9=2,10=2,28=1/1;
 1/53=2,62=2,63=1/22;
 3/5=7,6=11,7=10,11=2,25=1,30=1,74=-59,82=7/1,2,3;
 4//1;
 5/5=2,38=5/2;
 6/7=2,8=2,9=2,10=2,28=1/1;
 1/53=2,62=2,63=1/22(-4);
 99/5=1,9=1/99;
 Leave Link    1 at Sat Jan 23 22:50:09 2021, MaxMem=  3221225472 cpu:               1.6 elap:               0.1
 (Enter /home/spantaleone/g16/l101.exe)
 -----
 Title
 -----
 Symbolic Z-matrix:
 Charge =  0 Multiplicity = 1 in supermolecule
 Charge =  0 Multiplicity = 1 in fragment      1.
 Charge =  0 Multiplicity = 1 in fragment      2.
 H(Fragment=1)         6.09618  -1.14022   1.22734 
 O(Fragment=1)         5.5203   -0.33134   1.16722 
 H(Fragment=1)         6.16532   0.38842   1.22956 
 H(Fragment=1)         7.23808  -2.9774    4.55952 
 O(Fragment=1)         6.47639  -3.35072   4.02491 
 H(Fragment=1)         5.67611  -3.00173   4.49409 
 H(Fragment=1)         8.2624    1.61059   1.37402 
 O(Fragment=1)         8.27598   0.68617   1.68484 
 H(Fragment=1)         8.54419   0.13816   0.91609 
 H(Fragment=1)         8.14199  -1.07024  -0.95174 
 O(Fragment=1)         8.94211  -0.72199  -0.49244 
 H(Fragment=1)         9.64788  -1.37633  -0.65673 
 H(Fragment=1)         9.71931  -4.07215   1.89623 
 O(Fragment=1)         9.39377  -3.72219   1.02305 
 H(Fragment=1)         10.15067  -3.58505   0.43682 
 H(Fragment=1)         6.71821   0.27422   4.31941 
 O(Fragment=1)         7.65471   0.57068   4.26838 
 H(Fragment=1)         7.91972   0.378     3.34373 
 H(Fragment=1)         8.11869  -1.88671   6.04003 
 O(Fragment=1)         8.54698  -2.40304   5.32837 
 H(Fragment=1)         9.01993  -1.7547    4.75299 
 H(Fragment=1)         8.24031   0.62499   7.34319 
 O(Fragment=1)         8.54936   1.30212   6.72496 
 H(Fragment=1)         8.31094   0.92248   5.84661 
 H(Fragment=1)         6.79935  -2.72158   2.5253 
 O(Fragment=1)         6.93874  -2.50246   1.56583 
 H(Fragment=1)         7.88908  -2.61185   1.39631 
 H(Fragment=1)         10.36271  -2.63845  -2.10059 
 O(Fragment=1)         10.85315  -2.63121  -1.23319 
 H(Fragment=1)         11.71486  -2.2686   -1.46616 
 H(Fragment=1)         9.18395  -5.21347   3.60382 
 O(Fragment=1)         9.95237  -4.60831   3.48001 
 H(Fragment=1)         9.82261  -3.9622    4.19064 
 H(Fragment=1)         9.46803   0.94208  -0.91459 
 O(Fragment=1)         9.543     1.91814  -0.96615 
 H(Fragment=1)         9.82144   2.07257  -1.88094 
 N(Fragment=2)         10.24416  -1.19338   3.3441 
 H(Fragment=2)         9.98858  -0.30727   2.91481 
 H(Fragment=2)         10.28012  -1.87921   2.59429 
 H(Fragment=2)         11.18535  -1.09589   3.71132 
 
 ITRead=  0  0  0  0  0  0  0  0  0  0  0  0  0  0  0  0  0  0  0  0
 ITRead=  0  0  0  0  0  0  0  0  0  0  0  0  0  0  0  0  0  0  0  0
 MicOpt= -1 -1 -1 -1 -1 -1 -1 -1 -1 -1 -1 -1 -1 -1 -1 -1 -1 -1 -1 -1
 MicOpt= -1 -1 -1 -1 -1 -1 -1 -1 -1 -1 -1 -1 -1 -1 -1 -1 -1 -1 -1 -1
 NAtoms=     40 NQM=       40 NQMF=       0 NMMI=      0 NMMIF=      0
                NMic=       0 NMicF=      0.
                    Isotopes and Nuclear Properties:
 (Nuclear quadrupole moments (NQMom) in fm**2, nuclear magnetic moments (NMagM)
  in nuclear magnetons)

  Atom         1           2           3           4           5           6           7           8           9          10
 IAtWgt=           1          16           1           1          16           1           1          16           1           1
 AtmWgt=   1.0078250  15.9949146   1.0078250   1.0078250  15.9949146   1.0078250   1.0078250  15.9949146   1.0078250   1.0078250
 NucSpn=           1           0           1           1           0           1           1           0           1           1
 AtZEff=  -0.0000000  -0.0000000  -0.0000000  -0.0000000  -0.0000000  -0.0000000  -0.0000000  -0.0000000  -0.0000000  -0.0000000
 NQMom=    0.0000000   0.0000000   0.0000000   0.0000000   0.0000000   0.0000000   0.0000000   0.0000000   0.0000000   0.0000000
 NMagM=    2.7928460   0.0000000   2.7928460   2.7928460   0.0000000   2.7928460   2.7928460   0.0000000   2.7928460   2.7928460
 AtZNuc=   1.0000000   8.0000000   1.0000000   1.0000000   8.0000000   1.0000000   1.0000000   8.0000000   1.0000000   1.0000000

  Atom        11          12          13          14          15          16          17          18          19          20
 IAtWgt=          16           1           1          16           1           1          16           1           1          16
 AtmWgt=  15.9949146   1.0078250   1.0078250  15.9949146   1.0078250   1.0078250  15.9949146   1.0078250   1.0078250  15.9949146
 NucSpn=           0           1           1           0           1           1           0           1           1           0
 AtZEff=  -0.0000000  -0.0000000  -0.0000000  -0.0000000  -0.0000000  -0.0000000  -0.0000000  -0.0000000  -0.0000000  -0.0000000
 NQMom=    0.0000000   0.0000000   0.0000000   0.0000000   0.0000000   0.0000000   0.0000000   0.0000000   0.0000000   0.0000000
 NMagM=    0.0000000   2.7928460   2.7928460   0.0000000   2.7928460   2.7928460   0.0000000   2.7928460   2.7928460   0.0000000
 AtZNuc=   8.0000000   1.0000000   1.0000000   8.0000000   1.0000000   1.0000000   8.0000000   1.0000000   1.0000000   8.0000000

  Atom        21          22          23          24          25          26          27          28          29          30
 IAtWgt=           1           1          16           1           1          16           1           1          16           1
 AtmWgt=   1.0078250   1.0078250  15.9949146   1.0078250   1.0078250  15.9949146   1.0078250   1.0078250  15.9949146   1.0078250
 NucSpn=           1           1           0           1           1           0           1           1           0           1
 AtZEff=  -0.0000000  -0.0000000  -0.0000000  -0.0000000  -0.0000000  -0.0000000  -0.0000000  -0.0000000  -0.0000000  -0.0000000
 NQMom=    0.0000000   0.0000000   0.0000000   0.0000000   0.0000000   0.0000000   0.0000000   0.0000000   0.0000000   0.0000000
 NMagM=    2.7928460   2.7928460   0.0000000   2.7928460   2.7928460   0.0000000   2.7928460   2.7928460   0.0000000   2.7928460
 AtZNuc=   1.0000000   1.0000000   8.0000000   1.0000000   1.0000000   8.0000000   1.0000000   1.0000000   8.0000000   1.0000000

  Atom        31          32          33          34          35          36          37          38          39          40
 IAtWgt=           1          16           1           1          16           1          14           1           1           1
 AtmWgt=   1.0078250  15.9949146   1.0078250   1.0078250  15.9949146   1.0078250  14.0030740   1.0078250   1.0078250   1.0078250
 NucSpn=           1           0           1           1           0           1           2           1           1           1
 AtZEff=  -0.0000000  -0.0000000  -0.0000000  -0.0000000  -0.0000000  -0.0000000  -0.0000000  -0.0000000  -0.0000000  -0.0000000
 NQMom=    0.0000000   0.0000000   0.0000000   0.0000000   0.0000000   0.0000000   2.0440000   0.0000000   0.0000000   0.0000000
 NMagM=    2.7928460   0.0000000   2.7928460   2.7928460   0.0000000   2.7928460   0.4037610   2.7928460   2.7928460   2.7928460
 AtZNuc=   1.0000000   8.0000000   1.0000000   1.0000000   8.0000000   1.0000000   7.0000000   1.0000000   1.0000000   1.0000000
 Leave Link  101 at Sat Jan 23 22:50:10 2021, MaxMem=  3221225472 cpu:               5.3 elap:               0.2
 (Enter /home/spantaleone/g16/l202.exe)
                          Input orientation:                          
 ---------------------------------------------------------------------
 Center     Atomic      Atomic             Coordinates (Angstroms)
 Number     Number       Type             X           Y           Z
 ---------------------------------------------------------------------
      1          1           0        6.096179   -1.140223    1.227340
      2          8           0        5.520304   -0.331339    1.167221
      3          1           0        6.165319    0.388419    1.229563
      4          1           0        7.238075   -2.977401    4.559519
      5          8           0        6.476393   -3.350719    4.024909
      6          1           0        5.676107   -3.001732    4.494095
      7          1           0        8.262405    1.610593    1.374019
      8          8           0        8.275983    0.686166    1.684844
      9          1           0        8.544193    0.138157    0.916092
     10          1           0        8.141987   -1.070242   -0.951741
     11          8           0        8.942108   -0.721993   -0.492435
     12          1           0        9.647882   -1.376325   -0.656733
     13          1           0        9.719308   -4.072146    1.896231
     14          8           0        9.393772   -3.722190    1.023053
     15          1           0       10.150665   -3.585045    0.436824
     16          1           0        6.718213    0.274219    4.319413
     17          8           0        7.654714    0.570675    4.268377
     18          1           0        7.919716    0.378000    3.343730
     19          1           0        8.118688   -1.886708    6.040035
     20          8           0        8.546977   -2.403044    5.328366
     21          1           0        9.019934   -1.754701    4.752985
     22          1           0        8.240312    0.624987    7.343189
     23          8           0        8.549360    1.302120    6.724963
     24          1           0        8.310935    0.922475    5.846611
     25          1           0        6.799353   -2.721578    2.525302
     26          8           0        6.938741   -2.502459    1.565825
     27          1           0        7.889082   -2.611852    1.396314
     28          1           0       10.362709   -2.638448   -2.100590
     29          8           0       10.853148   -2.631213   -1.233187
     30          1           0       11.714857   -2.268598   -1.466159
     31          1           0        9.183946   -5.213473    3.603818
     32          8           0        9.952373   -4.608313    3.480006
     33          1           0        9.822610   -3.962198    4.190639
     34          1           0        9.468033    0.942083   -0.914593
     35          8           0        9.543003    1.918135   -0.966152
     36          1           0        9.821439    2.072573   -1.880935
     37          7           0       10.244161   -1.193383    3.344100
     38          1           0        9.988578   -0.307271    2.914808
     39          1           0       10.280122   -1.879214    2.594291
     40          1           0       11.185347   -1.095888    3.711321
 ---------------------------------------------------------------------
                    Distance matrix (angstroms):
                    1          2          3          4          5
     1  H    0.000000
     2  O    0.994756   0.000000
     3  H    1.530206   0.968495   0.000000
     4  H    3.972728   4.632501   4.854705   0.000000
     5  O    3.585700   4.265811   4.678876   1.002663   0.000000
     6  H    3.783301   4.268883   4.731767   1.563527   0.991153
     7  H    3.504431   3.366450   2.431532   5.678587   5.901836
     8  O    2.880374   2.982787   2.179641   4.771031   5.001087
     9  H    2.779191   3.070407   2.412454   4.968622   5.110068
    10  H    2.989753   3.450971   3.285269   5.901551   5.722047
    11  O    3.351396   3.823063   3.450920   5.789027   5.778957
    12  H    4.027415   4.632030   4.335975   5.964889   5.989520
    13  H    4.708572   5.670690   5.742118   3.801064   3.945659
    14  O    4.193138   5.149991   5.230933   4.208127   4.202408
    15  H    4.800097   5.706166   5.683294   5.084194   5.140967
    16  H    3.456658   3.426077   3.141004   3.301657   3.644912
    17  O    3.821532   3.871241   3.389086   3.584298   4.101835
    18  H    3.179527   3.316253   2.747311   3.633386   4.055925
    19  H    5.273501   5.737167   5.668553   2.038877   2.983487
    20  O    4.941613   5.546876   5.501340   1.623033   2.623815
    21  H    4.621266   5.208750   5.015605   2.169665   3.089817
    22  H    6.716910   6.815833   6.460494   4.661598   5.470707
    23  O    6.496691   6.536961   6.059532   4.972214   5.765101
    24  H    5.522457   5.590739   5.119181   4.244604   4.994430
    25  H    2.163294   3.032094   3.428268   2.096655   1.657994
    26  O    1.637122   2.623854   3.011383   3.045878   2.642046
    27  H    2.325671   3.296109   3.464216   3.250123   3.074268
    28  H    5.614541   6.280942   6.153855   7.364461   7.289206
    29  O    5.559316   6.284155   6.095823   6.836961   6.879044
    30  H    6.332275   7.004295   6.717442   7.540078   7.665789
    31  H    5.636783   6.572253   6.791936   3.114450   3.313309
    32  O    5.654413   6.579112   6.661351   3.345540   3.736429
    33  H    5.534525   6.390151   6.408714   2.790290   3.405663
    34  H    4.504806   4.641133   3.976414   7.092318   7.195606
    35  O    5.103485   5.078732   4.309286   7.733822   7.878808
    36  H    5.819020   5.793946   5.087120   8.582276   8.687947
    37  N    4.657172   5.272262   4.859045   3.700881   4.394733
    38  H    4.323439   4.797928   4.235722   4.171323   4.778111
    39  H    4.463187   5.204643   4.892468   3.784466   4.322077
    40  H    5.663193   6.256971   5.793356   4.454266   5.230377
                    6          7          8          9         10
     6  H    0.000000
     7  H    6.139817   0.000000
     8  O    5.315246   0.975378   0.000000
     9  H    5.557601   1.567536   0.981443   0.000000
    10  H    6.282384   3.551132   3.170884   2.260707   0.000000
    11  O    6.381963   3.063757   2.677159   1.697687   0.986120
    12  H    6.704325   3.868485   3.408659   2.446541   1.564748
    13  H    4.923633   5.889719   4.976887   4.479757   4.428353
    14  O    5.136947   5.462760   4.595761   3.954176   3.535478
    15  H    6.068226   5.607006   4.828585   4.083220   3.505301
    16  H    3.442144   3.584100   3.088252   3.864623   5.623146
    17  O    4.089979   3.134968   2.659691   3.495148   5.493603
    18  H    4.216599   2.348719   1.724470   2.518119   4.538489
    19  H    3.098292   5.832964   5.060841   5.525932   7.039325
    20  O    3.048988   5.641553   4.784549   5.091745   6.432738
    21  H    3.578168   4.828713   3.990587   4.304764   5.812329
    22  H    5.276891   6.050033   5.658788   6.452668   8.466955
    23  O    5.635202   5.367504   5.084971   5.924341   8.045237
    24  H    4.916403   4.525477   4.168617   4.997958   7.086399
    25  H    2.283925   4.715260   3.807824   3.716464   4.076690
    26  O    3.227737   4.325052   3.459727   3.157924   3.136429
    27  H    3.826946   4.238975   3.333146   2.867461   2.820263
    28  H    8.098524   5.876949   5.453164   4.485187   2.951395
    29  O    7.729217   5.612699   5.114850   4.197628   3.141057
    30  H    8.516373   5.918966   5.521350   4.639041   3.803430
    31  H    4.241383   7.238033   6.269976   6.022715   6.245411
    32  O    4.679309   6.779820   5.836471   5.575446   5.952800
    33  H    4.267091   6.436116   5.502577   5.400918   6.134491
    34  H    7.693262   2.671739   2.871158   2.202541   2.410234
    35  O    8.304955   2.685314   3.186043   2.776470   3.300523
    36  H    9.141846   3.638508   4.126177   3.632724   3.682560
    37  N    5.045764   3.958643   3.187406   3.249325   4.784198
    38  H    5.324629   3.005313   2.330817   2.505897   4.352267
    39  H    5.105512   4.211769   3.380065   3.146361   4.219052
    40  H    5.881896   4.618616   3.968214   4.038795   5.568379
                   11         12         13         14         15
    11  O    0.000000
    12  H    0.976351   0.000000
    13  H    4.187277   3.713513   0.000000
    14  O    3.391443   2.896435   0.995431   0.000000
    15  H    3.243640   2.515373   1.597875   0.967140   0.000000
    16  H    5.393703   6.005771   5.811133   5.830599   6.461435
    17  O    5.098402   5.658643   5.607621   5.655541   6.179043
    18  H    4.119640   4.697650   5.013740   4.936592   5.397496
    19  H    6.686385   6.888079   4.950680   5.492262   6.197520
    20  O    6.071555   6.171511   3.992469   4.581804   5.281678
    21  H    5.346679   5.459170   3.744425   4.233575   4.822650
    22  H    7.981471   8.365719   7.343013   7.757096   8.310938
    23  O    7.506139   7.929076   7.319028   7.646470   8.123377
    24  H    6.579222   7.026051   6.521906   6.783226   7.277921
    25  H    4.206718   4.477630   3.278094   3.160536   4.042104
    26  O    3.379345   3.680677   3.210084   2.794552   3.572547
    27  H    2.871899   2.972357   2.394181   1.906900   2.642439
    28  H    2.876990   2.046620   4.294652   3.445356   2.716520
    29  O    2.801055   1.832951   3.627001   2.900108   2.047490
    30  H    3.320883   2.392427   4.305888   3.700884   2.793040
    31  H    6.083680   5.752498   2.122520   2.988026   3.690010
    32  O    5.648399   5.258429   1.688235   2.670930   3.216730
    33  H    5.762412   5.496752   2.299363   3.205481   3.786950
    34  H    1.795540   2.339627   5.753813   5.051280   4.773594
    35  O    2.748774   3.310620   6.641369   5.982681   5.711618
    36  H    3.242029   3.663835   7.213528   6.495793   6.122829
    37  N    4.078793   4.049158   3.264823   3.536281   3.765772
    38  H    3.588370   3.743642   3.909513   3.948950   4.112235
    39  H    3.557713   3.349893   2.368702   2.578947   2.753413
    40  H    4.779486   4.639218   3.781790   4.163411   4.241321
                   16         17         18         19         20
    16  H    0.000000
    17  O    0.983628   0.000000
    18  H    1.551237   0.980980   0.000000
    19  H    3.097011   3.064763   3.526833   0.000000
    20  O    3.395600   3.280658   3.473678   0.978012   0.000000
    21  H    3.098777   2.739716   2.782965   1.576759   0.987472
    22  H    3.403387   3.130550   4.019883   2.832245   3.650004
    23  O    3.193172   2.714815   3.561346   3.289868   3.959637
    24  H    2.299855   1.745054   2.591123   2.822389   3.373925
    25  H    3.492881   3.822157   3.395942   3.845907   3.318557
    26  O    3.916736   4.154583   3.524245   4.667974   4.093045
    27  H    4.271399   4.293268   3.568274   4.705603   3.992175
    28  H    7.936146   7.628594   6.686389   8.477648   7.651254
    29  O    7.508035   7.123852   6.213578   7.805851   6.958769
    30  H    8.056377   7.578333   6.674025   8.331940   7.497940
    31  H    6.058604   6.019681   5.738510   4.258790   3.358319
    32  O    5.916377   5.720374   5.386426   4.162125   3.202309
    33  H    5.253674   5.025212   4.814102   3.260564   2.313574
    34  H    5.949989   5.503567   4.566048   7.628213   7.142321
    35  O    6.214426   5.725520   4.856147   8.098899   7.699715
    36  H    7.162988   6.690623   5.812508   9.017596   8.580759
    37  N    3.941751   3.266715   2.805760   3.502342   2.877677
    38  H    3.606429   2.837227   2.221207   3.969654   3.506528
    39  H    4.505609   3.961980   3.350849   4.067555   3.279231
    40  H    4.711927   3.943744   3.601641   3.930993   3.359239
                   21         22         23         24         25
    21  H    0.000000
    22  H    3.602760   0.000000
    23  O    3.668009   0.967586   0.000000
    24  H    2.977578   1.527492   0.986144   0.000000
    25  H    3.290654   6.040521   6.073699   5.157043   0.000000
    26  O    3.879239   6.697234   6.609510   5.651391   0.994001
    27  H    3.644280   6.779809   6.644520   5.698646   1.572947
    28  H    7.039570  10.214673   9.833956   8.946952   5.839803
    29  O    6.321646   9.538552   9.171189   8.319560   5.528803
    30  H    6.797386   9.902015   9.479709   8.674459   6.348160
    31  H    3.648368   6.997211   7.252393   6.591064   3.613727
    32  O    3.260831   6.726274   6.887047   6.235764   3.796415
    33  H    2.415277   5.786580   5.979716   5.374703   3.667774
    34  H    6.292446   8.354568   7.703013   6.859529   5.690092
    35  O    6.817027   8.509664   7.779463   6.994503   6.422212
    36  H    7.700606   9.469949   8.733457   7.957343   7.178566
    37  N    1.949042   4.828519   4.531018   3.804836   3.856490
    38  H    2.532236   4.851402   4.379357   3.594750   4.018924
    39  H    2.502706   5.743159   5.493530   4.722790   3.581911
    40  H    2.491608   4.982480   4.667002   4.110413   4.825604
                   26         27         28         29         30
    26  O    0.000000
    27  H    0.971519   0.000000
    28  H    5.018431   4.283442   0.000000
    29  O    4.813899   3.962365   0.996479   0.000000
    30  H    5.662058   4.790421   1.538699   0.963487   0.000000
    31  H    4.067426   3.649408   6.368713   5.731572   6.386115
    32  O    4.144959   3.547506   5.932267   5.189847   5.748492
    33  H    4.163795   3.656531   6.451634   5.679033   6.200665
    34  H    4.941119   4.523697   3.876498   3.845581   3.957387
    35  O    5.721428   5.370054   4.766688   4.741767   4.742962
    36  H    6.412567   6.034750   4.747098   4.858971   4.754244
    37  N    3.975141   3.369321   5.634440   4.836298   5.143698
    38  H    3.992507   3.467679   5.543336   4.832603   5.100952
    39  H    3.551197   2.772901   4.756592   3.942518   4.324042
    40  H    4.961377   4.303808   6.069146   5.188038   5.334972
                   31         32         33         34         35
    31  H    0.000000
    32  O    0.985915   0.000000
    33  H    1.522478   0.969176   0.000000
    34  H    7.641179   7.096054   7.088095   0.000000
    35  O    8.477817   7.907618   7.826173   0.980284   0.000000
    36  H    9.141957   8.566859   8.560518   1.528633   0.968610
    37  N    4.165649   3.430067   2.925862   4.826910   5.362037
    38  H    5.019261   4.338170   3.874762   4.061547   4.495867
    39  H    3.652127   2.887887   2.663919   4.575093   5.257372
    40  H    4.579483   3.729727   3.209756   5.338686   5.801757
                   36         37         38         39         40
    36  H    0.000000
    37  N    6.176257   0.000000
    38  H    5.356374   1.017256   0.000000
    39  H    5.987876   1.016794   1.630562   0.000000
    40  H    6.570595   1.014982   1.639697   1.637311   0.000000
 Stoichiometry    H27NO12
 Framework group  C1[X(H27NO12)]
 Deg. of freedom   114
 Full point group                 C1      NOp   1
 Largest Abelian subgroup         C1      NOp   1
 Largest concise Abelian subgroup C1      NOp   1
                         Standard orientation:                         
 ---------------------------------------------------------------------
 Center     Atomic      Atomic             Coordinates (Angstroms)
 Number     Number       Type             X           Y           Z
 ---------------------------------------------------------------------
      1          1           0        0.437015   -0.722975    2.539106
      2          8           0        0.377617   -1.637563    2.925810
      3          1           0        0.491487   -2.200896    2.146277
      4          1           0       -2.568331    1.404478    1.047663
      5          8           0       -2.243112    1.591905    1.977414
      6          1           0       -2.882144    1.092647    2.547296
      7          1           0        0.888972   -2.942300   -0.135098
      8          8           0        0.566540   -2.028337   -0.025227
      9          1           0        1.362688   -1.456482    0.023356
     10          1           0        3.046174   -0.412495    1.112743
     11          8           0        2.802624   -0.569245    0.170116
     12          1           0        3.115100    0.216165   -0.318506
     13          1           0        0.585129    2.932421   -0.425146
     14          8           0        1.362882    2.497691    0.018692
     15          1           0        2.117704    2.509816   -0.585837
     16          1           0       -2.375761   -1.888358    0.902444
     17          8           0       -2.092676   -1.979067   -0.035191
     18          1           0       -1.136774   -1.759069   -0.021966
     19          1           0       -3.763782    0.567298   -0.376081
     20          8           0       -2.983584    1.143968   -0.499572
     21          1           0       -2.294391    0.596501   -0.947225
     22          1           0       -4.933043   -1.824498   -1.342388
     23          8           0       -4.241056   -2.436260   -1.630701
     24          1           0       -3.456349   -2.140037   -1.112083
     25          1           0       -0.693962    1.006349    1.898660
     26          8           0        0.276203    0.796438    1.951149
     27          1           0        0.666954    1.101832    1.115747
     28          1           0        4.655223    1.562723   -0.377292
     29          8           0        3.932173    1.683737   -1.052217
     30          1           0        4.375456    1.507559   -1.889338
     31          1           0       -1.230396    3.978320   -0.085943
     32          8           0       -0.909168    3.548281   -0.912929
     33          1           0       -1.612983    2.908654   -1.099541
     34          1           0        3.382491   -2.093172   -0.581791
     35          8           0        3.476101   -3.031671   -0.849025
     36          1           0        4.434746   -3.147502   -0.925112
     37          7           0       -0.617699    0.272235   -1.886545
     38          1           0       -0.239695   -0.659212   -1.730569
     39          1           0        0.100465    0.929547   -1.593199
     40          1           0       -0.744452    0.388033   -2.886901
 ---------------------------------------------------------------------
 Rotational constants (GHZ):           0.3648089           0.2750265           0.2176219
 Leave Link  202 at Sat Jan 23 22:50:10 2021, MaxMem=  3221225472 cpu:               0.5 elap:               0.0
 (Enter /home/spantaleone/g16/l122.exe)
 Counterpoise: doing full-system calculation.
 Leave Link  122 at Sat Jan 23 22:50:10 2021, MaxMem=  3221225472 cpu:               0.0 elap:               0.0
 (Enter /home/spantaleone/g16/l301.exe)
 Standard basis: Aug-CC-pVTZ (5D, 7F)
 Ernie: Thresh=  0.10000D-02 Tol=  0.10000D-05 Strict=F.
 Ernie:  39 primitive shells out of 687 were deleted.
 There are  1390 symmetry adapted cartesian basis functions of A   symmetry.
 There are  1219 symmetry adapted basis functions of A   symmetry.
  1219 basis functions,  1665 primitive gaussians,  1390 cartesian basis functions
    65 alpha electrons       65 beta electrons
       nuclear repulsion energy      1085.2206982815 Hartrees.
 IExCor= 3630 DFT=T Ex+Corr=B97D3 ExCW=0 ScaHFX=  0.000000
 ScaDFX=  1.000000  1.000000  1.000000  1.000000 ScalE2=  1.000000  1.000000
 IRadAn=      5 IRanWt=     -1 IRanGd=            0 ICorTp=0 IEmpDi=141
 NAtoms=   40 NActive=   40 NUniq=   40 SFac= 1.00D+00 NAtFMM=   60 NAOKFM=F Big=F
 Integral buffers will be    131072 words long.
 Raffenetti 2 integral format.
 Two-electron integral symmetry is turned on.
 R6Disp:  Grimme-D3(BJ) Dispersion energy=       -0.0661793125 Hartrees.
 Nuclear repulsion after empirical dispersion term =     1085.1545189690 Hartrees.
 Leave Link  301 at Sat Jan 23 22:50:10 2021, MaxMem=  3221225472 cpu:               2.3 elap:               0.1
 (Enter /home/spantaleone/g16/l302.exe)
 NPDir=0 NMtPBC=     1 NCelOv=     1 NCel=       1 NClECP=     1 NCelD=      1
         NCelK=      1 NCelE2=     1 NClLst=     1 CellRange=     0.0.
 One-electron integrals computed using PRISM.
 One-electron integral symmetry used in STVInt
 NBasis=  1219 RedAO= T EigKep=  5.59D-06  NBF=  1219
 NBsUse=  1219 1.00D-06 EigRej= -1.00D+00 NBFU=  1219
 Precomputing XC quadrature grid using
 IXCGrd= 4 IRadAn=           5 IRanWt=          -1 IRanGd=           0 AccXCQ= 0.00D+00.
 Generated NRdTot=       0 NPtTot=           0 NUsed=           0 NTot=          32
 NSgBfM=  1384  1384  1384  1384  1384 MxSgAt=    40 MxSgA2=    40.
 Leave Link  302 at Sat Jan 23 22:50:14 2021, MaxMem=  3221225472 cpu:             101.1 elap:               4.3
 (Enter /home/spantaleone/g16/l303.exe)
 DipDrv:  MaxL=1.
 Leave Link  303 at Sat Jan 23 22:50:15 2021, MaxMem=  3221225472 cpu:               8.6 elap:               0.4
 (Enter /home/spantaleone/g16/l401.exe)
 ExpMin= 2.53D-02 ExpMax= 1.53D+04 ExpMxC= 5.22D+02 IAcc=3 IRadAn=         5 AccDes= 0.00D+00
 Harris functional with IExCor= 3630 and IRadAn=       5 diagonalized for initial guess.
 HarFok:  IExCor= 3630 AccDes= 0.00D+00 IRadAn=         5 IDoV= 1 UseB2=F ITyADJ=14
 ICtDFT=  3500011 ScaDFX=  1.000000  1.000000  1.000000  1.000000
 FoFCou: FMM=F IPFlag=           0 FMFlag=      100000 FMFlg1=           0
         NFxFlg=           0 DoJE=T BraDBF=F KetDBF=T FulRan=T
         wScrn=  0.000000 ICntrl=       500 IOpCl=  0 I1Cent=   200000004 NGrid=           0
         NMat0=    1 NMatS0=      1 NMatT0=    0 NMatD0=    1 NMtDS0=    0 NMtDT0=    0
 Petite list used in FoFCou.
 Harris En= -974.272296657177    
 JPrj=0 DoOrth=F DoCkMO=F.
 Leave Link  401 at Sat Jan 23 22:50:28 2021, MaxMem=  3221225472 cpu:             317.2 elap:              13.3
 (Enter /home/spantaleone/g16/l502.exe)
 Integral symmetry usage will be decided dynamically.
 Closed shell SCF:
 Using DIIS extrapolation, IDIIS=  1040.
 NGot=  3221225472 LenX=  3217316602 LenY=  3215383112
 Requested convergence on RMS density matrix=1.00D-08 within 128 cycles.
 Requested convergence on MAX density matrix=1.00D-06.
 Requested convergence on             energy=1.00D-06.
 No special actions if energy rises.
 Fock matrices will be formed incrementally for  20 cycles.

 Cycle   1  Pass 1  IDiag  1:
 FoFJK:  IHMeth= 1 ICntrl=     500 DoSepK=F KAlg= 0 I1Cent=           0 FoldK=F
 IRaf= 870000000 NMat=       1 IRICut=       1 DoRegI=T DoRafI=F ISym2E= 0 IDoP0=0 IntGTp=1.
 FoFCou: FMM=F IPFlag=           0 FMFlag=      100000 FMFlg1=           0
         NFxFlg=           0 DoJE=T BraDBF=F KetDBF=F FulRan=T
         wScrn=  0.000000 ICntrl=       500 IOpCl=  0 I1Cent=           0 NGrid=           0
         NMat0=    1 NMatS0=      1 NMatT0=    0 NMatD0=    1 NMtDS0=    0 NMtDT0=    0
 Symmetry not used in FoFCou.
 E= -972.832505005228    
 DIIS: error= 1.51D-02 at cycle   1 NSaved=   1.
 NSaved= 1 IEnMin= 1 EnMin= -972.832505005228     IErMin= 1 ErrMin= 1.51D-02
 ErrMax= 1.51D-02  0.00D+00 EMaxC= 1.00D-01 BMatC= 1.32D+00 BMatP= 1.32D+00
 IDIUse=3 WtCom= 8.49D-01 WtEn= 1.51D-01
 Coeff-Com:  0.100D+01
 Coeff-En:   0.100D+01
 Coeff:      0.100D+01
 Gap=     0.086 Goal=   None    Shift=    0.000
 GapD=    0.086 DampG=0.500 DampE=0.500 DampFc=0.2500 IDamp=-1.
 Damping current iteration by 2.50D-01
 RMSDP=3.40D-03 MaxDP=9.89D-01              OVMax= 9.72D-01

 Cycle   2  Pass 1  IDiag  1:
 RMSU=  8.50D-04    CP:  9.95D-01
 E= -973.071394147679     Delta-E=       -0.238889142451 Rises=F Damp=T
 DIIS: error= 3.96D-03 at cycle   2 NSaved=   2.
 NSaved= 2 IEnMin= 2 EnMin= -973.071394147679     IErMin= 2 ErrMin= 3.96D-03
 ErrMax= 3.96D-03  0.00D+00 EMaxC= 1.00D-01 BMatC= 9.84D-02 BMatP= 1.32D+00
 IDIUse=3 WtCom= 9.60D-01 WtEn= 3.96D-02
 Coeff-Com: -0.268D+00 0.127D+01
 Coeff-En:   0.244D+00 0.756D+00
 Coeff:     -0.247D+00 0.125D+01
 Gap=     0.190 Goal=   None    Shift=    0.000
 RMSDP=8.31D-04 MaxDP=2.45D-01 DE=-2.39D-01 OVMax= 9.00D-01

 Cycle   3  Pass 1  IDiag  1:
 RMSU=  5.87D-04    CP:  9.79D-01  3.13D-01
 E= -973.583200784030     Delta-E=       -0.511806636351 Rises=F Damp=F
 DIIS: error= 7.71D-03 at cycle   3 NSaved=   3.
 NSaved= 3 IEnMin= 3 EnMin= -973.583200784030     IErMin= 2 ErrMin= 3.96D-03
 ErrMax= 7.71D-03  0.00D+00 EMaxC= 1.00D-01 BMatC= 2.38D-01 BMatP= 9.84D-02
 IDIUse=3 WtCom= 1.02D-01 WtEn= 8.98D-01
 Coeff-Com: -0.220D+00 0.946D+00 0.274D+00
 Coeff-En:   0.000D+00 0.000D+00 0.100D+01
 Coeff:     -0.225D-01 0.968D-01 0.926D+00
 Gap=     0.426 Goal=   None    Shift=    0.000
 RMSDP=1.34D-03 MaxDP=2.18D-01 DE=-5.12D-01 OVMax= 9.98D-01

 Cycle   4  Pass 1  IDiag  1:
 RMSU=  1.11D-03    CP:  9.75D-01  9.63D-01  1.53D-01
 E= -970.736756766760     Delta-E=        2.846444017270 Rises=F Damp=F
 DIIS: error= 3.50D-02 at cycle   4 NSaved=   4.
 NSaved= 4 IEnMin= 3 EnMin= -973.583200784030     IErMin= 2 ErrMin= 3.96D-03
 ErrMax= 3.50D-02  0.00D+00 EMaxC= 1.00D-01 BMatC= 1.93D+00 BMatP= 9.84D-02
 IDIUse=2 WtCom= 0.00D+00 WtEn= 1.00D+00
 Coeff-En:   0.000D+00 0.000D+00 0.887D+00 0.113D+00
 Coeff:      0.000D+00 0.000D+00 0.887D+00 0.113D+00
 Gap=     0.114 Goal=   None    Shift=    0.000
 RMSDP=1.13D-03 MaxDP=1.71D-01 DE= 2.85D+00 OVMax= 9.98D-01

 Cycle   5  Pass 1  IDiag  1:
 RMSU=  4.32D-04    CP:  9.79D-01  3.94D-01  6.17D-01  2.05D-01
 E= -973.627041577149     Delta-E=       -2.890284810390 Rises=F Damp=F
 DIIS: error= 7.06D-03 at cycle   5 NSaved=   5.
 NSaved= 5 IEnMin= 5 EnMin= -973.627041577149     IErMin= 2 ErrMin= 3.96D-03
 ErrMax= 7.06D-03  0.00D+00 EMaxC= 1.00D-01 BMatC= 2.19D-01 BMatP= 9.84D-02
 IDIUse=3 WtCom= 1.06D-01 WtEn= 8.94D-01
 Coeff-Com: -0.957D-01 0.371D+00 0.398D+00-0.430D-02 0.330D+00
 Coeff-En:   0.000D+00 0.000D+00 0.448D+00 0.000D+00 0.552D+00
 Coeff:     -0.102D-01 0.395D-01 0.443D+00-0.458D-03 0.528D+00
 Gap=     0.110 Goal=   None    Shift=    0.000
 RMSDP=3.25D-04 MaxDP=5.28D-02 DE=-2.89D+00 OVMax= 1.24D-01

 Cycle   6  Pass 1  IDiag  1:
 RMSU=  1.70D-04    CP:  9.80D-01  3.85D-01  8.37D-01  9.62D-02  5.07D-01
 E= -973.767175321497     Delta-E=       -0.140133744347 Rises=F Damp=F
 DIIS: error= 1.27D-03 at cycle   6 NSaved=   6.
 NSaved= 6 IEnMin= 6 EnMin= -973.767175321497     IErMin= 6 ErrMin= 1.27D-03
 ErrMax= 1.27D-03  0.00D+00 EMaxC= 1.00D-01 BMatC= 1.03D-02 BMatP= 9.84D-02
 IDIUse=3 WtCom= 9.87D-01 WtEn= 1.27D-02
 Coeff-Com: -0.147D-01 0.759D-01 0.192D+00-0.436D-02 0.266D+00 0.486D+00
 Coeff-En:   0.000D+00 0.000D+00 0.000D+00 0.000D+00 0.000D+00 0.100D+01
 Coeff:     -0.145D-01 0.749D-01 0.189D+00-0.430D-02 0.262D+00 0.492D+00
 Gap=     0.127 Goal=   None    Shift=    0.000
 RMSDP=7.42D-05 MaxDP=8.26D-03 DE=-1.40D-01 OVMax= 1.34D-02

 Cycle   7  Pass 1  IDiag  1:
 RMSU=  4.89D-05    CP:  9.80D-01  3.65D-01  7.94D-01  1.07D-01  5.51D-01
                    CP:  7.61D-01
 E= -973.773981160266     Delta-E=       -0.006805838770 Rises=F Damp=F
 DIIS: error= 4.24D-04 at cycle   7 NSaved=   7.
 NSaved= 7 IEnMin= 7 EnMin= -973.773981160266     IErMin= 7 ErrMin= 4.24D-04
 ErrMax= 4.24D-04  0.00D+00 EMaxC= 1.00D-01 BMatC= 8.40D-04 BMatP= 1.03D-02
 IDIUse=3 WtCom= 9.96D-01 WtEn= 4.24D-03
 Coeff-Com:  0.427D-02-0.844D-02 0.290D-01-0.597D-04 0.800D-01 0.306D+00
 Coeff-Com:  0.589D+00
 Coeff-En:   0.000D+00 0.000D+00 0.000D+00 0.000D+00 0.000D+00 0.000D+00
 Coeff-En:   0.100D+01
 Coeff:      0.425D-02-0.840D-02 0.289D-01-0.594D-04 0.797D-01 0.305D+00
 Coeff:      0.591D+00
 Gap=     0.119 Goal=   None    Shift=    0.000
 RMSDP=2.55D-05 MaxDP=3.57D-03 DE=-6.81D-03 OVMax= 6.88D-03

 Cycle   8  Pass 1  IDiag  1:
 RMSU=  1.96D-05    CP:  9.80D-01  3.72D-01  7.95D-01  1.10D-01  5.60D-01
                    CP:  8.28D-01  8.32D-01
 E= -973.774514759072     Delta-E=       -0.000533598805 Rises=F Damp=F
 DIIS: error= 1.58D-04 at cycle   8 NSaved=   8.
 NSaved= 8 IEnMin= 8 EnMin= -973.774514759072     IErMin= 8 ErrMin= 1.58D-04
 ErrMax= 1.58D-04  0.00D+00 EMaxC= 1.00D-01 BMatC= 1.01D-04 BMatP= 8.40D-04
 IDIUse=3 WtCom= 9.98D-01 WtEn= 1.58D-03
 Coeff-Com:  0.164D-02-0.895D-03 0.108D-02 0.105D-03 0.840D-02 0.890D-01
 Coeff-Com:  0.303D+00 0.598D+00
 Coeff-En:   0.000D+00 0.000D+00 0.000D+00 0.000D+00 0.000D+00 0.000D+00
 Coeff-En:   0.665D-01 0.933D+00
 Coeff:      0.164D-02-0.894D-03 0.108D-02 0.105D-03 0.839D-02 0.888D-01
 Coeff:      0.303D+00 0.598D+00
 Gap=     0.121 Goal=   None    Shift=    0.000
 RMSDP=7.62D-06 MaxDP=1.37D-03 DE=-5.34D-04 OVMax= 2.24D-03

 Cycle   9  Pass 1  IDiag  1:
 RMSU=  5.54D-06    CP:  9.80D-01  3.70D-01  7.96D-01  1.08D-01  5.52D-01
                    CP:  8.28D-01  8.84D-01  9.29D-01
 E= -973.774583234945     Delta-E=       -0.000068475873 Rises=F Damp=F
 DIIS: error= 3.07D-05 at cycle   9 NSaved=   9.
 NSaved= 9 IEnMin= 9 EnMin= -973.774583234945     IErMin= 9 ErrMin= 3.07D-05
 ErrMax= 3.07D-05  0.00D+00 EMaxC= 1.00D-01 BMatC= 6.11D-06 BMatP= 1.01D-04
 IDIUse=1 WtCom= 1.00D+00 WtEn= 0.00D+00
 Coeff-Com:  0.664D-03 0.456D-03-0.622D-03 0.856D-05-0.463D-03 0.262D-01
 Coeff-Com:  0.117D+00 0.303D+00 0.554D+00
 Coeff:      0.664D-03 0.456D-03-0.622D-03 0.856D-05-0.463D-03 0.262D-01
 Coeff:      0.117D+00 0.303D+00 0.554D+00
 Gap=     0.122 Goal=   None    Shift=    0.000
 RMSDP=2.36D-06 MaxDP=5.56D-04 DE=-6.85D-05 OVMax= 5.36D-04

 Cycle  10  Pass 1  IDiag  1:
 RMSU=  2.04D-06    CP:  9.80D-01  3.70D-01  7.96D-01  1.08D-01  5.52D-01
                    CP:  8.27D-01  8.90D-01  9.49D-01  8.10D-01
 E= -973.774586704416     Delta-E=       -0.000003469471 Rises=F Damp=F
 DIIS: error= 1.75D-05 at cycle  10 NSaved=  10.
 NSaved=10 IEnMin=10 EnMin= -973.774586704416     IErMin=10 ErrMin= 1.75D-05
 ErrMax= 1.75D-05  0.00D+00 EMaxC= 1.00D-01 BMatC= 1.48D-06 BMatP= 6.11D-06
 IDIUse=1 WtCom= 1.00D+00 WtEn= 0.00D+00
 Coeff-Com:  0.349D-03-0.239D-03-0.518D-03 0.441D-04-0.108D-02 0.327D-02
 Coeff-Com:  0.232D-01 0.850D-01 0.350D+00 0.540D+00
 Coeff:      0.349D-03-0.239D-03-0.518D-03 0.441D-04-0.108D-02 0.327D-02
 Coeff:      0.232D-01 0.850D-01 0.350D+00 0.540D+00
 Gap=     0.122 Goal=   None    Shift=    0.000
 RMSDP=9.32D-07 MaxDP=2.64D-04 DE=-3.47D-06 OVMax= 2.36D-04

 Cycle  11  Pass 1  IDiag  1:
 RMSU=  4.90D-07    CP:  9.80D-01  3.70D-01  7.95D-01  1.08D-01  5.52D-01
                    CP:  8.28D-01  8.91D-01  9.53D-01  8.82D-01  6.89D-01
 E= -973.774587711109     Delta-E=       -0.000001006693 Rises=F Damp=F
 DIIS: error= 3.54D-06 at cycle  11 NSaved=  11.
 NSaved=11 IEnMin=11 EnMin= -973.774587711109     IErMin=11 ErrMin= 3.54D-06
 ErrMax= 3.54D-06  0.00D+00 EMaxC= 1.00D-01 BMatC= 4.06D-08 BMatP= 1.48D-06
 IDIUse=1 WtCom= 1.00D+00 WtEn= 0.00D+00
 Coeff-Com:  0.108D-03-0.379D-04-0.139D-03 0.683D-05-0.397D-03 0.227D-04
 Coeff-Com:  0.418D-02 0.231D-01 0.128D+00 0.237D+00 0.608D+00
 Coeff:      0.108D-03-0.379D-04-0.139D-03 0.683D-05-0.397D-03 0.227D-04
 Coeff:      0.418D-02 0.231D-01 0.128D+00 0.237D+00 0.608D+00
 Gap=     0.122 Goal=   None    Shift=    0.000
 RMSDP=1.80D-07 MaxDP=3.32D-05 DE=-1.01D-06 OVMax= 3.40D-05

 Cycle  12  Pass 1  IDiag  1:
 RMSU=  1.46D-07    CP:  9.80D-01  3.70D-01  7.95D-01  1.08D-01  5.52D-01
                    CP:  8.28D-01  8.91D-01  9.53D-01  8.80D-01  7.11D-01
                    CP:  8.17D-01
 E= -973.774587733484     Delta-E=       -0.000000022376 Rises=F Damp=F
 DIIS: error= 1.50D-06 at cycle  12 NSaved=  12.
 NSaved=12 IEnMin=12 EnMin= -973.774587733484     IErMin=12 ErrMin= 1.50D-06
 ErrMax= 1.50D-06  0.00D+00 EMaxC= 1.00D-01 BMatC= 1.12D-08 BMatP= 4.06D-08
 IDIUse=1 WtCom= 1.00D+00 WtEn= 0.00D+00
 Coeff-Com:  0.326D-04 0.177D-04-0.332D-04-0.652D-06-0.151D-03-0.311D-03
 Coeff-Com:  0.565D-03 0.742D-02 0.494D-01 0.990D-01 0.382D+00 0.462D+00
 Coeff:      0.326D-04 0.177D-04-0.332D-04-0.652D-06-0.151D-03-0.311D-03
 Coeff:      0.565D-03 0.742D-02 0.494D-01 0.990D-01 0.382D+00 0.462D+00
 Gap=     0.122 Goal=   None    Shift=    0.000
 RMSDP=7.37D-08 MaxDP=1.52D-05 DE=-2.24D-08 OVMax= 1.61D-05

 Cycle  13  Pass 1  IDiag  1:
 RMSU=  5.01D-08    CP:  9.80D-01  3.70D-01  7.95D-01  1.08D-01  5.52D-01
                    CP:  8.28D-01  8.92D-01  9.54D-01  8.81D-01  7.12D-01
                    CP:  8.57D-01  6.68D-01
 E= -973.774587741159     Delta-E=       -0.000000007675 Rises=F Damp=F
 DIIS: error= 3.58D-07 at cycle  13 NSaved=  13.
 NSaved=13 IEnMin=13 EnMin= -973.774587741159     IErMin=13 ErrMin= 3.58D-07
 ErrMax= 3.58D-07  0.00D+00 EMaxC= 1.00D-01 BMatC= 6.58D-10 BMatP= 1.12D-08
 IDIUse=1 WtCom= 1.00D+00 WtEn= 0.00D+00
 Coeff-Com:  0.560D-05-0.787D-06-0.338D-05 0.108D-06-0.243D-04-0.167D-03
 Coeff-Com: -0.273D-03 0.971D-03 0.885D-02 0.199D-01 0.117D+00 0.239D+00
 Coeff-Com:  0.615D+00
 Coeff:      0.560D-05-0.787D-06-0.338D-05 0.108D-06-0.243D-04-0.167D-03
 Coeff:     -0.273D-03 0.971D-03 0.885D-02 0.199D-01 0.117D+00 0.239D+00
 Coeff:      0.615D+00
 Gap=     0.122 Goal=   None    Shift=    0.000
 RMSDP=1.93D-08 MaxDP=2.24D-06 DE=-7.67D-09 OVMax= 3.35D-06

 Cycle  14  Pass 1  IDiag  1:
 RMSU=  1.40D-08    CP:  9.80D-01  3.70D-01  7.95D-01  1.08D-01  5.52D-01
                    CP:  8.28D-01  8.92D-01  9.54D-01  8.81D-01  7.12D-01
                    CP:  8.56D-01  7.07D-01  8.24D-01
 E= -973.774587741751     Delta-E=       -0.000000000592 Rises=F Damp=F
 DIIS: error= 8.23D-08 at cycle  14 NSaved=  14.
 NSaved=14 IEnMin=14 EnMin= -973.774587741751     IErMin=14 ErrMin= 8.23D-08
 ErrMax= 8.23D-08  0.00D+00 EMaxC= 1.00D-01 BMatC= 3.68D-11 BMatP= 6.58D-10
 IDIUse=1 WtCom= 1.00D+00 WtEn= 0.00D+00
 Coeff-Com:  0.967D-06-0.223D-06-0.337D-06-0.521D-07-0.664D-05-0.766D-04
 Coeff-Com: -0.182D-03 0.188D-03 0.245D-02 0.607D-02 0.436D-01 0.102D+00
 Coeff-Com:  0.315D+00 0.531D+00
 Coeff:      0.967D-06-0.223D-06-0.337D-06-0.521D-07-0.664D-05-0.766D-04
 Coeff:     -0.182D-03 0.188D-03 0.245D-02 0.607D-02 0.436D-01 0.102D+00
 Coeff:      0.315D+00 0.531D+00
 Gap=     0.122 Goal=   None    Shift=    0.000
 RMSDP=5.34D-09 MaxDP=8.87D-07 DE=-5.92D-10 OVMax= 9.70D-07

 SCF Done:  E(RB97D3) =  -973.774587742     A.U. after   14 cycles
            NFock= 14  Conv=0.53D-08     -V/T= 2.0055
 KE= 9.684359016544D+02 PE=-4.470975722743D+03 EE= 1.443610714378D+03
 Leave Link  502 at Sat Jan 23 23:07:06 2021, MaxMem=  3221225472 cpu:           23930.1 elap:             997.8
 (Enter /home/spantaleone/g16/l601.exe)
 Copying SCF densities to generalized density rwf, IOpCl= 0 IROHF=0.

 **********************************************************************

            Population analysis using the SCF Density.

 **********************************************************************

 Orbital symmetries:
       Occupied  (A) (A) (A) (A) (A) (A) (A) (A) (A) (A) (A) (A)
                 (A) (A) (A) (A) (A) (A) (A) (A) (A) (A) (A) (A)
                 (A) (A) (A) (A) (A) (A) (A) (A) (A) (A) (A) (A)
                 (A) (A) (A) (A) (A) (A) (A) (A) (A) (A) (A) (A)
                 (A) (A) (A) (A) (A) (A) (A) (A) (A) (A) (A) (A)
                 (A) (A) (A) (A) (A)
       Virtual   (A) (A) (A) (A) (A) (A) (A) (A) (A) (A) (A) (A)
                 (A) (A) (A) (A) (A) (A) (A) (A) (A) (A) (A) (A)
                 (A) (A) (A) (A) (A) (A) (A) (A) (A) (A) (A) (A)
                 (A) (A) (A) (A) (A) (A) (A) (A) (A) (A) (A) (A)
                 (A) (A) (A) (A) (A) (A) (A) (A) (A) (A) (A) (A)
                 (A) (A) (A) (A) (A) (A) (A) (A) (A) (A) (A) (A)
                 (A) (A) (A) (A) (A) (A) (A) (A) (A) (A) (A) (A)
                 (A) (A) (A) (A) (A) (A) (A) (A) (A) (A) (A) (A)
                 (A) (A) (A) (A) (A) (A) (A) (A) (A) (A) (A) (A)
                 (A) (A) (A) (A) (A) (A) (A) (A) (A) (A) (A) (A)
                 (A) (A) (A) (A) (A) (A) (A) (A) (A) (A) (A) (A)
                 (A) (A) (A) (A) (A) (A) (A) (A) (A) (A) (A) (A)
                 (A) (A) (A) (A) (A) (A) (A) (A) (A) (A) (A) (A)
                 (A) (A) (A) (A) (A) (A) (A) (A) (A) (A) (A) (A)
                 (A) (A) (A) (A) (A) (A) (A) (A) (A) (A) (A) (A)
                 (A) (A) (A) (A) (A) (A) (A) (A) (A) (A) (A) (A)
                 (A) (A) (A) (A) (A) (A) (A) (A) (A) (A) (A) (A)
                 (A) (A) (A) (A) (A) (A) (A) (A) (A) (A) (A) (A)
                 (A) (A) (A) (A) (A) (A) (A) (A) (A) (A) (A) (A)
                 (A) (A) (A) (A) (A) (A) (A) (A) (A) (A) (A) (A)
                 (A) (A) (A) (A) (A) (A) (A) (A) (A) (A) (A) (A)
                 (A) (A) (A) (A) (A) (A) (A) (A) (A) (A) (A) (A)
                 (A) (A) (A) (A) (A) (A) (A) (A) (A) (A) (A) (A)
                 (A) (A) (A) (A) (A) (A) (A) (A) (A) (A) (A) (A)
                 (A) (A) (A) (A) (A) (A) (A) (A) (A) (A) (A) (A)
                 (A) (A) (A) (A) (A) (A) (A) (A) (A) (A) (A) (A)
                 (A) (A) (A) (A) (A) (A) (A) (A) (A) (A) (A) (A)
                 (A) (A) (A) (A) (A) (A) (A) (A) (A) (A) (A) (A)
                 (A) (A) (A) (A) (A) (A) (A) (A) (A) (A) (A) (A)
                 (A) (A) (A) (A) (A) (A) (A) (A) (A) (A) (A) (A)
                 (A) (A) (A) (A) (A) (A) (A) (A) (A) (A) (A) (A)
                 (A) (A) (A) (A) (A) (A) (A) (A) (A) (A) (A) (A)
                 (A) (A) (A) (A) (A) (A) (A) (A) (A) (A) (A) (A)
                 (A) (A) (A) (A) (A) (A) (A) (A) (A) (A) (A) (A)
                 (A) (A) (A) (A) (A) (A) (A) (A) (A) (A) (A) (A)
                 (A) (A) (A) (A) (A) (A) (A) (A) (A) (A) (A) (A)
                 (A) (A) (A) (A) (A) (A) (A) (A) (A) (A) (A) (A)
                 (A) (A) (A) (A) (A) (A) (A) (A) (A) (A) (A) (A)
                 (A) (A) (A) (A) (A) (A) (A) (A) (A) (A) (A) (A)
                 (A) (A) (A) (A) (A) (A) (A) (A) (A) (A) (A) (A)
                 (A) (A) (A) (A) (A) (A) (A) (A) (A) (A) (A) (A)
                 (A) (A) (A) (A) (A) (A) (A) (A) (A) (A) (A) (A)
                 (A) (A) (A) (A) (A) (A) (A) (A) (A) (A) (A) (A)
                 (A) (A) (A) (A) (A) (A) (A) (A) (A) (A) (A) (A)
                 (A) (A) (A) (A) (A) (A) (A) (A) (A) (A) (A) (A)
                 (A) (A) (A) (A) (A) (A) (A) (A) (A) (A) (A) (A)
                 (A) (A) (A) (A) (A) (A) (A) (A) (A) (A) (A) (A)
                 (A) (A) (A) (A) (A) (A) (A) (A) (A) (A) (A) (A)
                 (A) (A) (A) (A) (A) (A) (A) (A) (A) (A) (A) (A)
                 (A) (A) (A) (A) (A) (A) (A) (A) (A) (A) (A) (A)
                 (A) (A) (A) (A) (A) (A) (A) (A) (A) (A) (A) (A)
                 (A) (A) (A) (A) (A) (A) (A) (A) (A) (A) (A) (A)
                 (A) (A) (A) (A) (A) (A) (A) (A) (A) (A) (A) (A)
                 (A) (A) (A) (A) (A) (A) (A) (A) (A) (A) (A) (A)
                 (A) (A) (A) (A) (A) (A) (A) (A) (A) (A) (A) (A)
                 (A) (A) (A) (A) (A) (A) (A) (A) (A) (A) (A) (A)
                 (A) (A) (A) (A) (A) (A) (A) (A) (A) (A) (A) (A)
                 (A) (A) (A) (A) (A) (A) (A) (A) (A) (A) (A) (A)
                 (A) (A) (A) (A) (A) (A) (A) (A) (A) (A) (A) (A)
                 (A) (A) (A) (A) (A) (A) (A) (A) (A) (A) (A) (A)
                 (A) (A) (A) (A) (A) (A) (A) (A) (A) (A) (A) (A)
                 (A) (A) (A) (A) (A) (A) (A) (A) (A) (A) (A) (A)
                 (A) (A) (A) (A) (A) (A) (A) (A) (A) (A) (A) (A)
                 (A) (A) (A) (A) (A) (A) (A) (A) (A) (A) (A) (A)
                 (A) (A) (A) (A) (A) (A) (A) (A) (A) (A) (A) (A)
                 (A) (A) (A) (A) (A) (A) (A) (A) (A) (A) (A) (A)
                 (A) (A) (A) (A) (A) (A) (A) (A) (A) (A) (A) (A)
                 (A) (A) (A) (A) (A) (A) (A) (A) (A) (A) (A) (A)
                 (A) (A) (A) (A) (A) (A) (A) (A) (A) (A) (A) (A)
                 (A) (A) (A) (A) (A) (A) (A) (A) (A) (A) (A) (A)
                 (A) (A) (A) (A) (A) (A) (A) (A) (A) (A) (A) (A)
                 (A) (A) (A) (A) (A) (A) (A) (A) (A) (A) (A) (A)
                 (A) (A) (A) (A) (A) (A) (A) (A) (A) (A) (A) (A)
                 (A) (A) (A) (A) (A) (A) (A) (A) (A) (A) (A) (A)
                 (A) (A) (A) (A) (A) (A) (A) (A) (A) (A) (A) (A)
                 (A) (A) (A) (A) (A) (A) (A) (A) (A) (A) (A) (A)
                 (A) (A) (A) (A) (A) (A) (A) (A) (A) (A) (A) (A)
                 (A) (A) (A) (A) (A) (A) (A) (A) (A) (A) (A) (A)
                 (A) (A) (A) (A) (A) (A) (A) (A) (A) (A) (A) (A)
                 (A) (A) (A) (A) (A) (A) (A) (A) (A) (A) (A) (A)
                 (A) (A) (A) (A) (A) (A) (A) (A) (A) (A) (A) (A)
                 (A) (A) (A) (A) (A) (A) (A) (A) (A) (A) (A) (A)
                 (A) (A) (A) (A) (A) (A) (A) (A) (A) (A) (A) (A)
                 (A) (A) (A) (A) (A) (A) (A) (A) (A) (A) (A) (A)
                 (A) (A) (A) (A) (A) (A) (A) (A) (A) (A) (A) (A)
                 (A) (A) (A) (A) (A) (A) (A) (A) (A) (A) (A) (A)
                 (A) (A) (A) (A) (A) (A) (A) (A) (A) (A) (A) (A)
                 (A) (A) (A) (A) (A) (A) (A) (A) (A) (A) (A) (A)
                 (A) (A) (A) (A) (A) (A) (A) (A) (A) (A) (A) (A)
                 (A) (A) (A) (A) (A) (A) (A) (A) (A) (A) (A) (A)
                 (A) (A) (A) (A) (A) (A) (A) (A) (A) (A) (A) (A)
                 (A) (A) (A) (A) (A) (A) (A) (A) (A) (A) (A) (A)
                 (A) (A) (A) (A) (A) (A) (A) (A) (A) (A) (A) (A)
                 (A) (A) (A) (A) (A) (A) (A) (A) (A) (A) (A) (A)
                 (A) (A) (A) (A) (A) (A) (A) (A) (A) (A) (A) (A)
                 (A) (A) (A) (A) (A) (A) (A) (A) (A) (A) (A) (A)
                 (A) (A)
 The electronic state is 1-A.
 Alpha  occ. eigenvalues --  -18.84112 -18.80761 -18.78976 -18.77851 -18.76438
 Alpha  occ. eigenvalues --  -18.75287 -18.75156 -18.74704 -18.74703 -18.72121
 Alpha  occ. eigenvalues --  -18.71072 -18.68689 -13.99858  -1.00905  -0.97879
 Alpha  occ. eigenvalues --   -0.96083  -0.95068  -0.93803  -0.92204  -0.91827
 Alpha  occ. eigenvalues --   -0.91592  -0.91552  -0.88963  -0.88493  -0.85525
 Alpha  occ. eigenvalues --   -0.80344  -0.55474  -0.52905  -0.50822  -0.50134
 Alpha  occ. eigenvalues --   -0.49744  -0.48812  -0.47934  -0.47566  -0.47411
 Alpha  occ. eigenvalues --   -0.45001  -0.44494  -0.43949  -0.43418  -0.42611
 Alpha  occ. eigenvalues --   -0.41592  -0.40385  -0.38466  -0.37603  -0.36751
 Alpha  occ. eigenvalues --   -0.35117  -0.34837  -0.34376  -0.33353  -0.32854
 Alpha  occ. eigenvalues --   -0.31629  -0.31221  -0.29788  -0.29490  -0.28971
 Alpha  occ. eigenvalues --   -0.28407  -0.26894  -0.26493  -0.26296  -0.26124
 Alpha  occ. eigenvalues --   -0.25602  -0.25348  -0.23039  -0.22472  -0.20320
 Alpha virt. eigenvalues --   -0.08167  -0.04878  -0.03114  -0.02577  -0.02160
 Alpha virt. eigenvalues --   -0.01195  -0.00623   0.00509   0.00654   0.01489
 Alpha virt. eigenvalues --    0.02119   0.02381   0.02664   0.03347   0.03819
 Alpha virt. eigenvalues --    0.04096   0.04504   0.04778   0.04939   0.05236
 Alpha virt. eigenvalues --    0.05462   0.06068   0.06086   0.06302   0.06514
 Alpha virt. eigenvalues --    0.06866   0.07097   0.07469   0.07871   0.08299
 Alpha virt. eigenvalues --    0.08417   0.08627   0.08846   0.09051   0.09302
 Alpha virt. eigenvalues --    0.09839   0.10190   0.10509   0.10646   0.10960
 Alpha virt. eigenvalues --    0.11452   0.11671   0.11797   0.11925   0.12031
 Alpha virt. eigenvalues --    0.12485   0.12773   0.12863   0.13298   0.13487
 Alpha virt. eigenvalues --    0.13869   0.13968   0.14166   0.14503   0.14819
 Alpha virt. eigenvalues --    0.15043   0.15522   0.15577   0.16121   0.16196
 Alpha virt. eigenvalues --    0.16278   0.16501   0.16881   0.17298   0.17438
 Alpha virt. eigenvalues --    0.17533   0.18054   0.18383   0.18680   0.18749
 Alpha virt. eigenvalues --    0.18996   0.19180   0.19324   0.19699   0.19850
 Alpha virt. eigenvalues --    0.20072   0.20358   0.20832   0.20949   0.21200
 Alpha virt. eigenvalues --    0.21485   0.21688   0.22125   0.22373   0.22767
 Alpha virt. eigenvalues --    0.23229   0.23451   0.24096   0.24240   0.24443
 Alpha virt. eigenvalues --    0.24647   0.24859   0.25144   0.25600   0.26013
 Alpha virt. eigenvalues --    0.26224   0.26413   0.26603   0.26745   0.27068
 Alpha virt. eigenvalues --    0.27583   0.28018   0.28412   0.28573   0.28801
 Alpha virt. eigenvalues --    0.29260   0.29585   0.29803   0.30007   0.30480
 Alpha virt. eigenvalues --    0.30674   0.30750   0.30963   0.31261   0.31691
 Alpha virt. eigenvalues --    0.32231   0.32486   0.32771   0.32859   0.33159
 Alpha virt. eigenvalues --    0.33385   0.33598   0.33739   0.34430   0.34705
 Alpha virt. eigenvalues --    0.34774   0.35196   0.35596   0.35764   0.36158
 Alpha virt. eigenvalues --    0.36441   0.36813   0.36851   0.37181   0.37438
 Alpha virt. eigenvalues --    0.37671   0.37914   0.38203   0.38548   0.38765
 Alpha virt. eigenvalues --    0.39195   0.39424   0.39697   0.40017   0.40088
 Alpha virt. eigenvalues --    0.40412   0.40740   0.41184   0.41425   0.41758
 Alpha virt. eigenvalues --    0.42139   0.42243   0.42993   0.43053   0.43233
 Alpha virt. eigenvalues --    0.44031   0.44520   0.44679   0.44777   0.44953
 Alpha virt. eigenvalues --    0.45568   0.45880   0.46589   0.46860   0.47089
 Alpha virt. eigenvalues --    0.47620   0.48197   0.48754   0.49097   0.49234
 Alpha virt. eigenvalues --    0.49522   0.49924   0.50222   0.50975   0.51134
 Alpha virt. eigenvalues --    0.52012   0.52171   0.52479   0.52777   0.53253
 Alpha virt. eigenvalues --    0.53625   0.54204   0.54535   0.54909   0.55065
 Alpha virt. eigenvalues --    0.55478   0.56155   0.56239   0.56844   0.57079
 Alpha virt. eigenvalues --    0.57138   0.58113   0.58361   0.58712   0.59141
 Alpha virt. eigenvalues --    0.59605   0.59864   0.60169   0.60409   0.60767
 Alpha virt. eigenvalues --    0.60944   0.61355   0.61873   0.62256   0.62628
 Alpha virt. eigenvalues --    0.63132   0.63770   0.64018   0.64643   0.64732
 Alpha virt. eigenvalues --    0.65286   0.65399   0.65542   0.65896   0.66085
 Alpha virt. eigenvalues --    0.66802   0.67234   0.67651   0.68446   0.68672
 Alpha virt. eigenvalues --    0.69119   0.69378   0.69639   0.69982   0.70119
 Alpha virt. eigenvalues --    0.71121   0.71818   0.72067   0.72113   0.72412
 Alpha virt. eigenvalues --    0.72787   0.73048   0.73130   0.73636   0.74077
 Alpha virt. eigenvalues --    0.74339   0.74981   0.75217   0.75786   0.76095
 Alpha virt. eigenvalues --    0.76279   0.76561   0.76690   0.76930   0.77436
 Alpha virt. eigenvalues --    0.78093   0.78317   0.78507   0.78728   0.79454
 Alpha virt. eigenvalues --    0.79790   0.80237   0.80381   0.80675   0.80895
 Alpha virt. eigenvalues --    0.81324   0.81518   0.81980   0.82388   0.82563
 Alpha virt. eigenvalues --    0.82684   0.83035   0.83462   0.83822   0.84257
 Alpha virt. eigenvalues --    0.84359   0.84965   0.85292   0.85365   0.85708
 Alpha virt. eigenvalues --    0.86035   0.86252   0.86671   0.86846   0.87267
 Alpha virt. eigenvalues --    0.87694   0.88056   0.88303   0.88598   0.88650
 Alpha virt. eigenvalues --    0.88888   0.89428   0.89755   0.90044   0.90281
 Alpha virt. eigenvalues --    0.90581   0.91146   0.91614   0.91791   0.92604
 Alpha virt. eigenvalues --    0.92903   0.92979   0.93615   0.93628   0.94234
 Alpha virt. eigenvalues --    0.94640   0.94785   0.95054   0.95523   0.95834
 Alpha virt. eigenvalues --    0.96217   0.96281   0.96846   0.97367   0.97722
 Alpha virt. eigenvalues --    0.98214   0.98265   0.98436   0.98543   0.98788
 Alpha virt. eigenvalues --    0.99452   1.00234   1.00601   1.00743   1.00957
 Alpha virt. eigenvalues --    1.01340   1.01663   1.02020   1.02431   1.02547
 Alpha virt. eigenvalues --    1.03162   1.03335   1.04116   1.04204   1.04860
 Alpha virt. eigenvalues --    1.05121   1.05352   1.05630   1.06123   1.06479
 Alpha virt. eigenvalues --    1.06656   1.07395   1.07912   1.08368   1.08551
 Alpha virt. eigenvalues --    1.08978   1.09645   1.09813   1.10028   1.10313
 Alpha virt. eigenvalues --    1.10650   1.10847   1.11291   1.11655   1.12155
 Alpha virt. eigenvalues --    1.12536   1.12788   1.13373   1.13699   1.13775
 Alpha virt. eigenvalues --    1.14113   1.14342   1.15020   1.15231   1.15751
 Alpha virt. eigenvalues --    1.16334   1.16649   1.16902   1.17010   1.17505
 Alpha virt. eigenvalues --    1.17719   1.17942   1.18780   1.18993   1.19684
 Alpha virt. eigenvalues --    1.20042   1.20375   1.20636   1.21104   1.21521
 Alpha virt. eigenvalues --    1.21835   1.22120   1.22588   1.23063   1.23394
 Alpha virt. eigenvalues --    1.23758   1.24288   1.25090   1.25167   1.25489
 Alpha virt. eigenvalues --    1.25679   1.26199   1.26640   1.27196   1.27773
 Alpha virt. eigenvalues --    1.28359   1.28913   1.29285   1.29466   1.30082
 Alpha virt. eigenvalues --    1.30564   1.30906   1.31216   1.31632   1.32078
 Alpha virt. eigenvalues --    1.32688   1.33462   1.33760   1.34047   1.34369
 Alpha virt. eigenvalues --    1.34620   1.34819   1.35502   1.36385   1.36745
 Alpha virt. eigenvalues --    1.37060   1.37663   1.38059   1.38401   1.38613
 Alpha virt. eigenvalues --    1.39637   1.40143   1.40406   1.40901   1.41303
 Alpha virt. eigenvalues --    1.41773   1.41970   1.42784   1.43320   1.43753
 Alpha virt. eigenvalues --    1.43901   1.44714   1.45046   1.45607   1.46429
 Alpha virt. eigenvalues --    1.46941   1.47268   1.47583   1.47782   1.48172
 Alpha virt. eigenvalues --    1.48917   1.49097   1.49805   1.50341   1.50438
 Alpha virt. eigenvalues --    1.50659   1.51357   1.51675   1.52384   1.52769
 Alpha virt. eigenvalues --    1.53017   1.53518   1.54034   1.54154   1.54564
 Alpha virt. eigenvalues --    1.54965   1.55919   1.56486   1.57252   1.58000
 Alpha virt. eigenvalues --    1.58593   1.58806   1.59121   1.60003   1.60244
 Alpha virt. eigenvalues --    1.60518   1.61082   1.61234   1.61755   1.62413
 Alpha virt. eigenvalues --    1.62979   1.63663   1.64052   1.64750   1.65187
 Alpha virt. eigenvalues --    1.65708   1.65805   1.65943   1.66851   1.67062
 Alpha virt. eigenvalues --    1.67681   1.68067   1.70049   1.70350   1.71092
 Alpha virt. eigenvalues --    1.71335   1.71461   1.71930   1.72292   1.72592
 Alpha virt. eigenvalues --    1.73543   1.74214   1.74667   1.75557   1.75877
 Alpha virt. eigenvalues --    1.76223   1.77234   1.77562   1.78135   1.78651
 Alpha virt. eigenvalues --    1.79210   1.79780   1.80208   1.80707   1.81006
 Alpha virt. eigenvalues --    1.81809   1.82771   1.83408   1.84400   1.84718
 Alpha virt. eigenvalues --    1.84988   1.85472   1.85639   1.86249   1.87064
 Alpha virt. eigenvalues --    1.88418   1.88760   1.89307   1.90097   1.90281
 Alpha virt. eigenvalues --    1.90877   1.91282   1.91951   1.92971   1.93123
 Alpha virt. eigenvalues --    1.93945   1.94494   1.94952   1.96021   1.96148
 Alpha virt. eigenvalues --    1.97048   1.97654   1.98159   1.99165   2.00364
 Alpha virt. eigenvalues --    2.00610   2.02274   2.02597   2.03619   2.03822
 Alpha virt. eigenvalues --    2.04119   2.05423   2.05491   2.06064   2.07277
 Alpha virt. eigenvalues --    2.07480   2.08605   2.09069   2.09403   2.10151
 Alpha virt. eigenvalues --    2.10397   2.11416   2.12380   2.12981   2.13686
 Alpha virt. eigenvalues --    2.14235   2.14942   2.15384   2.16364   2.17161
 Alpha virt. eigenvalues --    2.17800   2.18360   2.19082   2.19260   2.19734
 Alpha virt. eigenvalues --    2.20142   2.20898   2.21298   2.21813   2.22166
 Alpha virt. eigenvalues --    2.22497   2.23397   2.24213   2.24792   2.25672
 Alpha virt. eigenvalues --    2.25973   2.26312   2.26770   2.27170   2.27697
 Alpha virt. eigenvalues --    2.28013   2.28477   2.29112   2.30371   2.30409
 Alpha virt. eigenvalues --    2.30615   2.31124   2.31854   2.32104   2.32917
 Alpha virt. eigenvalues --    2.33230   2.33973   2.34252   2.34747   2.35372
 Alpha virt. eigenvalues --    2.36208   2.36695   2.36908   2.37418   2.38246
 Alpha virt. eigenvalues --    2.38953   2.39336   2.39705   2.40122   2.41435
 Alpha virt. eigenvalues --    2.41781   2.42110   2.43342   2.43490   2.43735
 Alpha virt. eigenvalues --    2.44233   2.44488   2.45888   2.46391   2.47386
 Alpha virt. eigenvalues --    2.47819   2.48466   2.48809   2.49344   2.50060
 Alpha virt. eigenvalues --    2.50283   2.50959   2.51620   2.51803   2.52540
 Alpha virt. eigenvalues --    2.52753   2.53035   2.53749   2.54163   2.54714
 Alpha virt. eigenvalues --    2.55002   2.55506   2.56757   2.57129   2.57793
 Alpha virt. eigenvalues --    2.58361   2.58815   2.59178   2.59854   2.60426
 Alpha virt. eigenvalues --    2.60579   2.61281   2.61863   2.62616   2.63314
 Alpha virt. eigenvalues --    2.63387   2.63712   2.64371   2.64437   2.65372
 Alpha virt. eigenvalues --    2.66327   2.66859   2.67417   2.67996   2.68558
 Alpha virt. eigenvalues --    2.69463   2.69599   2.70539   2.70762   2.70921
 Alpha virt. eigenvalues --    2.71908   2.72740   2.73297   2.73561   2.74952
 Alpha virt. eigenvalues --    2.75589   2.75864   2.76615   2.77444   2.77624
 Alpha virt. eigenvalues --    2.78030   2.79383   2.80036   2.80306   2.81055
 Alpha virt. eigenvalues --    2.81419   2.81794   2.82187   2.83730   2.85414
 Alpha virt. eigenvalues --    2.86351   2.86641   2.87218   2.87879   2.87989
 Alpha virt. eigenvalues --    2.90560   2.91212   2.91566   2.92395   2.92701
 Alpha virt. eigenvalues --    2.93089   2.94216   2.94780   2.96714   2.97119
 Alpha virt. eigenvalues --    2.98297   2.99273   3.01999   3.02276   3.03095
 Alpha virt. eigenvalues --    3.04738   3.07323   3.08772   3.10840   3.12213
 Alpha virt. eigenvalues --    3.14241   3.16162   3.17171   3.18278   3.20919
 Alpha virt. eigenvalues --    3.21431   3.25522   3.35162   3.40263   3.41556
 Alpha virt. eigenvalues --    3.43726   3.48444   3.50187   3.52155   3.56189
 Alpha virt. eigenvalues --    3.58813   3.60397   3.61707   3.63474   3.63894
 Alpha virt. eigenvalues --    3.65095   3.65915   3.71371   3.73247   3.73843
 Alpha virt. eigenvalues --    3.75117   3.75663   3.77008   3.77144   3.78064
 Alpha virt. eigenvalues --    3.78892   3.79635   3.80504   3.81580   3.82734
 Alpha virt. eigenvalues --    3.83890   3.84178   3.84634   3.85090   3.85628
 Alpha virt. eigenvalues --    3.86344   3.86962   3.87526   3.88117   3.88899
 Alpha virt. eigenvalues --    3.89355   3.90080   3.90951   3.91235   3.91620
 Alpha virt. eigenvalues --    3.92408   3.92552   3.93631   3.94267   3.94576
 Alpha virt. eigenvalues --    3.94926   3.95175   3.95527   3.95998   3.96805
 Alpha virt. eigenvalues --    3.97126   3.97617   3.98337   3.99023   3.99207
 Alpha virt. eigenvalues --    3.99833   4.01126   4.01362   4.01885   4.02267
 Alpha virt. eigenvalues --    4.02735   4.02902   4.03443   4.04228   4.04512
 Alpha virt. eigenvalues --    4.04830   4.05200   4.05576   4.06737   4.07304
 Alpha virt. eigenvalues --    4.07728   4.08098   4.08568   4.09330   4.09961
 Alpha virt. eigenvalues --    4.10527   4.10820   4.11543   4.12008   4.12369
 Alpha virt. eigenvalues --    4.13709   4.13918   4.14746   4.15015   4.15116
 Alpha virt. eigenvalues --    4.16149   4.17278   4.17713   4.17790   4.18734
 Alpha virt. eigenvalues --    4.19830   4.20140   4.20361   4.20843   4.21139
 Alpha virt. eigenvalues --    4.21982   4.22978   4.23521   4.23672   4.24306
 Alpha virt. eigenvalues --    4.25236   4.25985   4.26507   4.26573   4.27543
 Alpha virt. eigenvalues --    4.28371   4.28693   4.28770   4.28969   4.29870
 Alpha virt. eigenvalues --    4.30302   4.30586   4.31213   4.31608   4.32144
 Alpha virt. eigenvalues --    4.33816   4.34474   4.34735   4.35287   4.36043
 Alpha virt. eigenvalues --    4.36486   4.37002   4.37924   4.38085   4.38767
 Alpha virt. eigenvalues --    4.39291   4.39411   4.40296   4.41660   4.41978
 Alpha virt. eigenvalues --    4.42370   4.43150   4.43464   4.43878   4.45102
 Alpha virt. eigenvalues --    4.45796   4.45907   4.47683   4.48485   4.48822
 Alpha virt. eigenvalues --    4.49129   4.49285   4.50525   4.51730   4.52579
 Alpha virt. eigenvalues --    4.53260   4.53325   4.53835   4.55048   4.55581
 Alpha virt. eigenvalues --    4.56330   4.57135   4.57839   4.58412   4.59527
 Alpha virt. eigenvalues --    4.59797   4.61095   4.61295   4.62167   4.63592
 Alpha virt. eigenvalues --    4.64373   4.66038   4.66843   4.68215   4.68821
 Alpha virt. eigenvalues --    4.69425   4.69933   4.70408   4.70751   4.72488
 Alpha virt. eigenvalues --    4.73215   4.73363   4.74083   4.74641   4.75156
 Alpha virt. eigenvalues --    4.76451   4.77616   4.78385   4.78505   4.79948
 Alpha virt. eigenvalues --    4.80385   4.81353   4.81976   4.82468   4.83255
 Alpha virt. eigenvalues --    4.83739   4.84913   4.85440   4.85678   4.86349
 Alpha virt. eigenvalues --    4.87199   4.87360   4.88209   4.89202   4.90029
 Alpha virt. eigenvalues --    4.90707   4.91163   4.91848   4.92927   4.93348
 Alpha virt. eigenvalues --    4.94482   4.94941   4.95317   4.96372   4.97318
 Alpha virt. eigenvalues --    4.98229   4.98768   5.00534   5.00690   5.01029
 Alpha virt. eigenvalues --    5.01703   5.02963   5.03107   5.03706   5.05161
 Alpha virt. eigenvalues --    5.06026   5.06956   5.08908   5.09230   5.10473
 Alpha virt. eigenvalues --    5.11016   5.11975   5.13594   5.14411   5.15354
 Alpha virt. eigenvalues --    5.16585   5.17511   5.19627   5.20659   5.22075
 Alpha virt. eigenvalues --    5.22389   5.23650   5.24363   5.26197   5.27904
 Alpha virt. eigenvalues --    5.28304   5.29158   5.30784   5.31863   5.32486
 Alpha virt. eigenvalues --    5.35102   5.37849   5.39360   5.43942   5.45445
 Alpha virt. eigenvalues --    5.46881   5.47433   5.48757   5.50515   5.52077
 Alpha virt. eigenvalues --    5.52735   5.53799   5.55344   5.56359   5.57170
 Alpha virt. eigenvalues --    5.62613   5.66828   5.69407   5.80785   5.82959
 Alpha virt. eigenvalues --    5.83155   5.84560   5.85120   5.85377   5.87676
 Alpha virt. eigenvalues --    5.90667   5.91757   5.93980   5.94826   5.95148
 Alpha virt. eigenvalues --    5.99454   5.99702   6.04250   6.04733   6.06287
 Alpha virt. eigenvalues --    6.07762   6.09146   6.11666   6.13864   6.15909
 Alpha virt. eigenvalues --    6.16893   6.18332   6.19964   6.21271   6.22155
 Alpha virt. eigenvalues --    6.23142   6.24002   6.26262   6.31704   6.32784
 Alpha virt. eigenvalues --    6.37305   6.38398   6.38753   6.39544   6.40380
 Alpha virt. eigenvalues --    6.40724   6.44281   6.44635   6.45571   6.46699
 Alpha virt. eigenvalues --    6.49660   6.50919   6.51330   6.52182   6.52595
 Alpha virt. eigenvalues --    6.53762   6.54434   6.54634   6.55798   6.56665
 Alpha virt. eigenvalues --    6.56797   6.58100   6.60646   6.61719   6.63810
 Alpha virt. eigenvalues --    6.64185   6.64726   6.65589   6.66044   6.66500
 Alpha virt. eigenvalues --    6.66851   6.67933   6.68668   6.69047   6.69366
 Alpha virt. eigenvalues --    6.70542   6.71186   6.71730   6.72278   6.73083
 Alpha virt. eigenvalues --    6.73850   6.74760   6.75038   6.75599   6.76784
 Alpha virt. eigenvalues --    6.77664   6.78778   6.79071   6.79839   6.80389
 Alpha virt. eigenvalues --    6.80688   6.81091   6.81512   6.82419   6.83027
 Alpha virt. eigenvalues --    6.83653   6.84428   6.85028   6.85649   6.86013
 Alpha virt. eigenvalues --    6.87394   6.88013   6.88627   6.89224   6.90627
 Alpha virt. eigenvalues --    6.91305   6.92566   6.92954   6.93374   6.93888
 Alpha virt. eigenvalues --    6.94634   6.95905   6.96200   6.97344   6.98338
 Alpha virt. eigenvalues --    6.99000   6.99964   7.01105   7.02496   7.02736
 Alpha virt. eigenvalues --    7.03032   7.04745   7.05530   7.06177   7.07630
 Alpha virt. eigenvalues --    7.08794   7.11105   7.11678   7.13114   7.14004
 Alpha virt. eigenvalues --    7.14300   7.16786   7.17410   7.19663   7.20290
 Alpha virt. eigenvalues --    7.20946   7.22447   7.22582   7.25668   7.26327
 Alpha virt. eigenvalues --    7.27736   7.30685   7.34055   7.34736   7.35908
 Alpha virt. eigenvalues --    7.36399   7.38109   7.39308   7.40614   7.41325
 Alpha virt. eigenvalues --    7.42006   7.43408   7.45173   7.45864   7.46577
 Alpha virt. eigenvalues --    7.48715   7.50384   7.50892   7.52636   7.53236
 Alpha virt. eigenvalues --    7.54302   7.55613   7.56546   7.58166   7.59031
 Alpha virt. eigenvalues --    7.60256   7.62010   7.64887   7.66573   7.67615
 Alpha virt. eigenvalues --    7.69686   7.72138   7.74329   7.84265   8.16966
 Alpha virt. eigenvalues --    8.26017   8.27904   8.30718   8.31188   8.33781
 Alpha virt. eigenvalues --    8.38108   8.40424   8.42871   8.45923   8.50917
 Alpha virt. eigenvalues --    8.56079  15.52804  15.61991  15.70478  15.70685
 Alpha virt. eigenvalues --   15.81513  16.16957  16.43827  16.50111  16.74437
 Alpha virt. eigenvalues --   17.13247  17.55211  17.98727  18.39080
          Condensed to atoms (all electrons):
               1          2          3          4          5          6
     1  H    0.557523   0.028526   0.060833   0.004985  -0.005274   0.002442
     2  O    0.028526   8.641381   0.126557  -0.002462  -0.002591   0.001312
     3  H    0.060833   0.126557   0.554120   0.000430   0.000414  -0.000229
     4  H    0.004985  -0.002462   0.000430   0.605010  -0.040647   0.061270
     5  O   -0.005274  -0.002591   0.000414  -0.040647   8.700970   0.134148
     6  H    0.002442   0.001312  -0.000229   0.061270   0.134148   0.670149
     7  H   -0.002369   0.003856  -0.002961   0.000473  -0.000424   0.000137
     8  O    0.010410  -0.007197  -0.049576   0.001247   0.002366   0.000592
     9  H    0.002840  -0.027016   0.015069  -0.001652   0.002188  -0.000251
    10  H   -0.000391   0.000427   0.002370   0.000086   0.000172  -0.000072
    11  O    0.008102   0.010988   0.007218  -0.001337  -0.001032   0.000180
    12  H    0.001489   0.001771  -0.000342   0.000338  -0.000461   0.000012
    13  H    0.001383  -0.000089   0.000212   0.002798  -0.000141   0.001053
    14  O   -0.005008  -0.001336  -0.000107   0.002155   0.000763  -0.000283
    15  H   -0.000996   0.000514   0.000125   0.000494   0.003344  -0.000322
    16  H   -0.001364   0.007767  -0.000040   0.005480   0.002024   0.002639
    17  O    0.001714  -0.009185   0.009058  -0.003920  -0.005197  -0.005005
    18  H    0.005779  -0.021553   0.011842   0.004163   0.006077  -0.002005
    19  H   -0.000098   0.000431  -0.000155   0.030992  -0.015372   0.002497
    20  O    0.001658   0.000434   0.000023  -0.074217  -0.129734  -0.003589
    21  H   -0.000090   0.000621   0.000199   0.035220   0.015299  -0.000812
    22  H    0.000081  -0.000074  -0.000027   0.000751   0.000364   0.000019
    23  O   -0.000089  -0.000103  -0.000020   0.000561   0.000094  -0.000068
    24  H   -0.000123   0.000680  -0.000148  -0.000332  -0.000174   0.000228
    25  H    0.025608   0.015642   0.006537   0.039658  -0.041767   0.012301
    26  O   -0.103700  -0.101386  -0.001589  -0.021715  -0.117199   0.006377
    27  H    0.022769   0.002600   0.011757  -0.000795  -0.030880  -0.000286
    28  H   -0.000130  -0.000126  -0.000049  -0.000048  -0.000006   0.000002
    29  O    0.000029  -0.000252  -0.000151   0.000315   0.000184  -0.000013
    30  H   -0.000121  -0.000074  -0.000001  -0.000022   0.000019   0.000000
    31  H   -0.000225   0.000033  -0.000018  -0.005526   0.004315  -0.000089
    32  O    0.001128   0.000181  -0.000049   0.001148  -0.027313   0.002573
    33  H    0.000054   0.000048  -0.000020   0.003237   0.000507   0.000517
    34  H   -0.001495   0.001979  -0.000665  -0.000072   0.000002   0.000004
    35  O   -0.000522   0.001806   0.001132   0.000043   0.000010  -0.000007
    36  H    0.000097  -0.000578  -0.000628  -0.000000   0.000002   0.000000
    37  N    0.002379   0.001532   0.000345   0.012685   0.001268   0.001109
    38  H    0.000228   0.002952   0.000932   0.000496  -0.002226   0.000655
    39  H   -0.000870   0.000665   0.000162   0.000032  -0.001714   0.000118
    40  H    0.000284  -0.000384  -0.000204  -0.001932   0.000918  -0.000090
               7          8          9         10         11         12
     1  H   -0.002369   0.010410   0.002840  -0.000391   0.008102   0.001489
     2  O    0.003856  -0.007197  -0.027016   0.000427   0.010988   0.001771
     3  H   -0.002961  -0.049576   0.015069   0.002370   0.007218  -0.000342
     4  H    0.000473   0.001247  -0.001652   0.000086  -0.001337   0.000338
     5  O   -0.000424   0.002366   0.002188   0.000172  -0.001032  -0.000461
     6  H    0.000137   0.000592  -0.000251  -0.000072   0.000180   0.000012
     7  H    0.614460   0.189870   0.018537  -0.001710   0.014155  -0.009325
     8  O    0.189870   9.377578  -0.312540   0.009658  -0.132713   0.029078
     9  H    0.018537  -0.312540   0.806746   0.007605  -0.117747   0.008940
    10  H   -0.001710   0.009658   0.007605   0.605825   0.107149   0.068006
    11  O    0.014155  -0.132713  -0.117747   0.107149   8.835712  -0.005114
    12  H   -0.009325   0.029078   0.008940   0.068006  -0.005114   0.594766
    13  H   -0.000044   0.006896  -0.000254   0.001056  -0.000565  -0.000247
    14  O    0.000265  -0.002281   0.010746  -0.000565  -0.002443  -0.000063
    15  H   -0.000000  -0.000074  -0.000415  -0.002312   0.013236  -0.018861
    16  H   -0.003176   0.016239  -0.000780   0.000128   0.000064   0.000056
    17  O    0.023582  -0.132835   0.006622   0.000229   0.000947   0.000088
    18  H   -0.017602  -0.085488   0.021494  -0.001757   0.004462  -0.002865
    19  H    0.000014  -0.000098   0.000652  -0.000049   0.000087   0.000005
    20  O    0.000016  -0.001243  -0.003544  -0.000219   0.000201  -0.000491
    21  H    0.000894  -0.000813  -0.003725  -0.000053   0.000889  -0.000699
    22  H   -0.000397   0.000413   0.000263  -0.000007  -0.000000  -0.000002
    23  O    0.000625   0.000086  -0.000744   0.000017   0.000015   0.000028
    24  H   -0.000933  -0.007712   0.001157  -0.000001  -0.000116  -0.000118
    25  H    0.000830  -0.022400   0.001898   0.001455  -0.003277   0.001102
    26  O    0.002296   0.005351   0.002982   0.009479  -0.033336  -0.007070
    27  H    0.005122  -0.047560   0.009233   0.006398  -0.005539  -0.001157
    28  H   -0.000279   0.000233  -0.003041  -0.000833   0.013925  -0.013144
    29  O   -0.000150   0.001593  -0.012299   0.007040  -0.031654  -0.049626
    30  H   -0.000202  -0.000076  -0.000191  -0.003187   0.014300  -0.012835
    31  H   -0.000050  -0.000526   0.000118  -0.000013   0.000540  -0.000177
    32  O    0.000116   0.000211  -0.000636  -0.000036  -0.000813   0.001178
    33  H   -0.000024   0.000576   0.000059   0.000086   0.000034   0.000098
    34  H    0.001181  -0.008222  -0.006773   0.000995  -0.002141  -0.004519
    35  O   -0.008149   0.001494  -0.041607   0.001834  -0.030214   0.006822
    36  H   -0.000279   0.000963   0.018056   0.000179  -0.027177   0.001465
    37  N    0.011173  -0.094119  -0.003002   0.000409   0.008215  -0.001313
    38  H    0.004993  -0.048112  -0.008872   0.000676   0.008879  -0.000839
    39  H    0.000020   0.011884   0.006083   0.000040   0.008974  -0.001602
    40  H   -0.000283  -0.004768   0.004799  -0.000018  -0.003694   0.001232
              13         14         15         16         17         18
     1  H    0.001383  -0.005008  -0.000996  -0.001364   0.001714   0.005779
     2  O   -0.000089  -0.001336   0.000514   0.007767  -0.009185  -0.021553
     3  H    0.000212  -0.000107   0.000125  -0.000040   0.009058   0.011842
     4  H    0.002798   0.002155   0.000494   0.005480  -0.003920   0.004163
     5  O   -0.000141   0.000763   0.003344   0.002024  -0.005197   0.006077
     6  H    0.001053  -0.000283  -0.000322   0.002639  -0.005005  -0.002005
     7  H   -0.000044   0.000265  -0.000000  -0.003176   0.023582  -0.017602
     8  O    0.006896  -0.002281  -0.000074   0.016239  -0.132835  -0.085488
     9  H   -0.000254   0.010746  -0.000415  -0.000780   0.006622   0.021494
    10  H    0.001056  -0.000565  -0.002312   0.000128   0.000229  -0.001757
    11  O   -0.000565  -0.002443   0.013236   0.000064   0.000947   0.004462
    12  H   -0.000247  -0.000063  -0.018861   0.000056   0.000088  -0.002865
    13  H    0.654238   0.032440   0.014686   0.000077  -0.001088  -0.002505
    14  O    0.032440   8.770065   0.108182   0.000058  -0.000925   0.000727
    15  H    0.014686   0.108182   0.722330  -0.000037  -0.000016   0.000433
    16  H    0.000077   0.000058  -0.000037   0.592088   0.120398   0.075132
    17  O   -0.001088  -0.000925  -0.000016   0.120398   8.930637  -0.233881
    18  H   -0.002505   0.000727   0.000433   0.075132  -0.233881   0.663017
    19  H    0.000187   0.000046  -0.000199   0.002000   0.003171   0.000017
[...]
  XXY=             79.8038  XXZ=              3.1430  XZZ=             14.6460  YZZ=             40.8327
  YYZ=              1.0282  XYZ=             15.7994
 Hexadecapole moment (field-independent basis, Debye-Ang**3):
 XXXX=          -1886.7723 YYYY=          -2275.3121 ZZZZ=          -1158.1004 XXXY=           -103.5540
 XXXZ=           -311.3687 YYYX=           -167.7386 YYYZ=            -27.0196 ZZZX=           -135.1424
 ZZZY=             28.5652 XXYY=          -1037.9119 XXZZ=           -647.3535 YYZZ=           -659.4689
 XXYZ=           -146.4557 YYXZ=            -97.3890 ZZXY=             -2.3068
 N-N= 9.115104858808D+02 E-N=-3.991446073113D+03  KE= 9.121359487047D+02
 No NMR shielding tensors so no spin-rotation constants.
 Leave Link  601 at Sat Jan 23 23:48:35 2021, MaxMem=  3221225472 cpu:              28.9 elap:               1.5
 (Enter /home/spantaleone/g16/l122.exe)
 CPIOFr:  IOpCl= 0 IRwI=-1 IRwCP=  731 ICalc=  3 LCPTot=     2244023 Len1MO=     5967603 IndFrg=    26114435
 Counterpoise: doing calculation for fragment   2 using the basis set of the fragment.
 Leave Link  122 at Sat Jan 23 23:48:35 2021, MaxMem=  3221225472 cpu:               2.0 elap:               0.1
 (Enter /home/spantaleone/g16/l301.exe)
 Basis read from rwf:  (5D, 7F)
 No pseudopotential information found on rwf file.
 There are   130 symmetry adapted cartesian basis functions of A   symmetry.
 There are   115 symmetry adapted basis functions of A   symmetry.
   115 basis functions,   153 primitive gaussians,   130 cartesian basis functions
     5 alpha electrons        5 beta electrons
       nuclear repulsion energy        11.9044920372 Hartrees.
 IExCor= 3630 DFT=T Ex+Corr=B97D3 ExCW=0 ScaHFX=  0.000000
 ScaDFX=  1.000000  1.000000  1.000000  1.000000 ScalE2=  1.000000  1.000000
 IRadAn=      5 IRanWt=     -1 IRanGd=            0 ICorTp=0 IEmpDi=141
 NAtoms=   40 NActive=    4 NUniq=    4 SFac= 1.00D+00 NAtFMM=   60 NAOKFM=F Big=F
 Integral buffers will be    131072 words long.
 Raffenetti 2 integral format.
 Two-electron integral symmetry is turned on.
 R6Disp:  Grimme-D3(BJ) Dispersion energy=       -0.0026831954 Hartrees.
 Nuclear repulsion after empirical dispersion term =       11.9018088418 Hartrees.
 No density basis found on file   718.
 Leave Link  301 at Sat Jan 23 23:48:35 2021, MaxMem=  3221225472 cpu:               1.0 elap:               0.0
 (Enter /home/spantaleone/g16/l302.exe)
 NPDir=0 NMtPBC=     1 NCelOv=     1 NCel=       1 NClECP=     1 NCelD=      1
         NCelK=      1 NCelE2=     1 NClLst=     1 CellRange=     0.0.
 One-electron integrals computed using PRISM.
 One-electron integral symmetry used in STVInt
 NBasis=   115 RedAO= T EigKep=  2.73D-04  NBF=   115
 NBsUse=   115 1.00D-06 EigRej= -1.00D+00 NBFU=   115
 Precomputing XC quadrature grid using
 IXCGrd= 4 IRadAn=           5 IRanWt=          -1 IRanGd=           0 AccXCQ= 0.00D+00.
 Generated NRdTot=       0 NPtTot=           0 NUsed=           0 NTot=          32
 NSgBfM=   130   130   130   130   130 MxSgAt=     4 MxSgA2=     4.
 Leave Link  302 at Sat Jan 23 23:48:35 2021, MaxMem=  3221225472 cpu:               5.1 elap:               0.2
 (Enter /home/spantaleone/g16/l303.exe)
 DipDrv:  MaxL=1.
 Leave Link  303 at Sat Jan 23 23:48:36 2021, MaxMem=  3221225472 cpu:               0.8 elap:               0.0
 (Enter /home/spantaleone/g16/l401.exe)
 ExpMin= 2.53D-02 ExpMax= 1.14D+04 ExpMxC= 3.89D+02 IAcc=3 IRadAn=         5 AccDes= 0.00D+00
 Harris functional with IExCor= 3630 and IRadAn=       5 diagonalized for initial guess.
 HarFok:  IExCor= 3630 AccDes= 0.00D+00 IRadAn=         5 IDoV= 1 UseB2=F ITyADJ=14
 ICtDFT=  3500011 ScaDFX=  1.000000  1.000000  1.000000  1.000000
 FoFCou: FMM=F IPFlag=           0 FMFlag=      100000 FMFlg1=           0
         NFxFlg=           0 DoJE=T BraDBF=F KetDBF=T FulRan=T
         wScrn=  0.000000 ICntrl=       500 IOpCl=  0 I1Cent=   200000004 NGrid=           0
         NMat0=    1 NMatS0=      1 NMatT0=    0 NMatD0=    1 NMtDS0=    0 NMtDT0=    0
 Petite list used in FoFCou.
 Harris En= -56.6000009081645    
 JPrj=0 DoOrth=F DoCkMO=F.
 Leave Link  401 at Sat Jan 23 23:48:36 2021, MaxMem=  3221225472 cpu:               8.3 elap:               0.4
 (Enter /home/spantaleone/g16/l502.exe)
 Keep J ints in memory in canonical form, NReq=45192063.
 FoFCou: FMM=F IPFlag=           0 FMFlag=           0 FMFlg1=           0
         NFxFlg=           0 DoJE=F BraDBF=F KetDBF=F FulRan=T
         wScrn=  0.000000 ICntrl=       600 IOpCl=  0 I1Cent=           0 NGrid=           0
         NMat0=    1 NMatS0=   6670 NMatT0=    0 NMatD0=    1 NMtDS0=    0 NMtDT0=    0
 Symmetry not used in FoFCou.
 Two-electron integral symmetry not used.
 Closed shell SCF:
 Using DIIS extrapolation, IDIIS=  1040.
 NGot=  3221225472 LenX=  3198938505 LenY=  3198921164
 Requested convergence on RMS density matrix=1.00D-08 within 128 cycles.
 Requested convergence on MAX density matrix=1.00D-06.
 Requested convergence on             energy=1.00D-06.
 No special actions if energy rises.

 Cycle   1  Pass 1  IDiag  1:
 E= -56.4704987795231    
 DIIS: error= 4.08D-02 at cycle   1 NSaved=   1.
 NSaved= 1 IEnMin= 1 EnMin= -56.4704987795231     IErMin= 1 ErrMin= 4.08D-02
 ErrMax= 4.08D-02  0.00D+00 EMaxC= 1.00D-01 BMatC= 1.03D-01 BMatP= 1.03D-01
 IDIUse=3 WtCom= 5.92D-01 WtEn= 4.08D-01
 Coeff-Com:  0.100D+01
 Coeff-En:   0.100D+01
 Coeff:      0.100D+01
 Gap=     0.050 Goal=   None    Shift=    0.000
 GapD=    0.050 DampG=0.500 DampE=0.500 DampFc=0.2500 IDamp=-1.
 Damping current iteration by 2.50D-01
 RMSDP=4.09D-03 MaxDP=8.40D-02              OVMax= 3.70D-01

 Cycle   2  Pass 1  IDiag  1:
 E= -56.5003511908110     Delta-E=       -0.029852411288 Rises=F Damp=T
 DIIS: error= 1.11D-02 at cycle   2 NSaved=   2.
 NSaved= 2 IEnMin= 2 EnMin= -56.5003511908110     IErMin= 2 ErrMin= 1.11D-02
 ErrMax= 1.11D-02  0.00D+00 EMaxC= 1.00D-01 BMatC= 9.25D-03 BMatP= 1.03D-01
 IDIUse=3 WtCom= 8.89D-01 WtEn= 1.11D-01
 Coeff-Com: -0.360D+00 0.136D+01
 Coeff-En:   0.260D-01 0.974D+00
 Coeff:     -0.317D+00 0.132D+01
 Gap=     0.183 Goal=   None    Shift=    0.000
 RMSDP=7.88D-04 MaxDP=3.42D-02 DE=-2.99D-02 OVMax= 2.74D-01

 Cycle   3  Pass 1  IDiag  1:
 E= -56.5552696526104     Delta-E=       -0.054918461799 Rises=F Damp=F
 DIIS: error= 7.53D-04 at cycle   3 NSaved=   3.
 NSaved= 3 IEnMin= 3 EnMin= -56.5552696526104     IErMin= 3 ErrMin= 7.53D-04
 ErrMax= 7.53D-04  0.00D+00 EMaxC= 1.00D-01 BMatC= 4.91D-05 BMatP= 9.25D-03
 IDIUse=3 WtCom= 9.92D-01 WtEn= 7.53D-03
 Coeff-Com: -0.107D-01 0.250D-01 0.986D+00
 Coeff-En:   0.000D+00 0.000D+00 0.100D+01
 Coeff:     -0.107D-01 0.248D-01 0.986D+00
 Gap=     0.200 Goal=   None    Shift=    0.000
 RMSDP=1.15D-04 MaxDP=1.96D-03 DE=-5.49D-02 OVMax= 5.85D-03

 Cycle   4  Pass 1  IDiag  1:
 E= -56.5553030417046     Delta-E=       -0.000033389094 Rises=F Damp=F
 DIIS: error= 5.78D-04 at cycle   4 NSaved=   4.
 NSaved= 4 IEnMin= 4 EnMin= -56.5553030417046     IErMin= 4 ErrMin= 5.78D-04
 ErrMax= 5.78D-04  0.00D+00 EMaxC= 1.00D-01 BMatC= 2.05D-05 BMatP= 4.91D-05
 IDIUse=3 WtCom= 9.94D-01 WtEn= 5.78D-03
 Coeff-Com:  0.128D-01-0.148D-01 0.220D+00 0.782D+00
 Coeff-En:   0.000D+00 0.000D+00 0.172D+00 0.828D+00
 Coeff:      0.127D-01-0.148D-01 0.220D+00 0.782D+00
 Gap=     0.202 Goal=   None    Shift=    0.000
 RMSDP=2.41D-05 MaxDP=7.71D-04 DE=-3.34D-05 OVMax= 1.91D-03

 Cycle   5  Pass 1  IDiag  1:
 E= -56.5553219868228     Delta-E=       -0.000018945118 Rises=F Damp=F
 DIIS: error= 1.33D-04 at cycle   5 NSaved=   5.
 NSaved= 5 IEnMin= 5 EnMin= -56.5553219868228     IErMin= 5 ErrMin= 1.33D-04
 ErrMax= 1.33D-04  0.00D+00 EMaxC= 1.00D-01 BMatC= 7.32D-07 BMatP= 2.05D-05
 IDIUse=3 WtCom= 9.99D-01 WtEn= 1.33D-03
 Coeff-Com:  0.605D-02-0.624D-02 0.436D-01 0.240D+00 0.717D+00
 Coeff-En:   0.000D+00 0.000D+00 0.000D+00 0.000D+00 0.100D+01
 Coeff:      0.604D-02-0.624D-02 0.435D-01 0.240D+00 0.717D+00
 Gap=     0.202 Goal=   None    Shift=    0.000
 RMSDP=5.00D-06 MaxDP=9.71D-05 DE=-1.89D-05 OVMax= 3.22D-04

 Cycle   6  Pass 1  IDiag  1:
 E= -56.5553226613465     Delta-E=       -0.000000674524 Rises=F Damp=F
 DIIS: error= 1.13D-05 at cycle   6 NSaved=   6.
 NSaved= 6 IEnMin= 6 EnMin= -56.5553226613465     IErMin= 6 ErrMin= 1.13D-05
 ErrMax= 1.13D-05  0.00D+00 EMaxC= 1.00D-01 BMatC= 7.28D-09 BMatP= 7.32D-07
 IDIUse=1 WtCom= 1.00D+00 WtEn= 0.00D+00
 Coeff-Com:  0.212D-03-0.201D-03 0.175D-02-0.613D-02-0.699D-02 0.101D+01
 Coeff:      0.212D-03-0.201D-03 0.175D-02-0.613D-02-0.699D-02 0.101D+01
 Gap=     0.202 Goal=   None    Shift=    0.000
 RMSDP=7.24D-07 MaxDP=1.27D-05 DE=-6.75D-07 OVMax= 3.81D-05

 Cycle   7  Pass 1  IDiag  1:
 E= -56.5553226683147     Delta-E=       -0.000000006968 Rises=F Damp=F
 DIIS: error= 7.07D-07 at cycle   7 NSaved=   7.
 NSaved= 7 IEnMin= 7 EnMin= -56.5553226683147     IErMin= 7 ErrMin= 7.07D-07
 ErrMax= 7.07D-07  0.00D+00 EMaxC= 1.00D-01 BMatC= 4.24D-11 BMatP= 7.28D-09
 IDIUse=1 WtCom= 1.00D+00 WtEn= 0.00D+00
 Coeff-Com:  0.553D-05-0.398D-05 0.604D-04-0.265D-02-0.696D-02 0.171D+00
 Coeff-Com:  0.839D+00
 Coeff:      0.553D-05-0.398D-05 0.604D-04-0.265D-02-0.696D-02 0.171D+00
 Coeff:      0.839D+00
 Gap=     0.202 Goal=   None    Shift=    0.000
 RMSDP=5.27D-08 MaxDP=1.37D-06 DE=-6.97D-09 OVMax= 3.55D-06

 Cycle   8  Pass 1  IDiag  1:
 E= -56.5553226683518     Delta-E=       -0.000000000037 Rises=F Damp=F
 DIIS: error= 3.25D-07 at cycle   8 NSaved=   8.
 NSaved= 8 IEnMin= 8 EnMin= -56.5553226683518     IErMin= 8 ErrMin= 3.25D-07
 ErrMax= 3.25D-07  0.00D+00 EMaxC= 1.00D-01 BMatC= 5.91D-12 BMatP= 4.24D-11
 IDIUse=1 WtCom= 1.00D+00 WtEn= 0.00D+00
 Coeff-Com: -0.594D-05 0.479D-05-0.652D-04-0.145D-03-0.107D-02-0.184D-01
 Coeff-Com:  0.301D+00 0.719D+00
 Coeff:     -0.594D-05 0.479D-05-0.652D-04-0.145D-03-0.107D-02-0.184D-01
 Coeff:      0.301D+00 0.719D+00
 Gap=     0.202 Goal=   None    Shift=    0.000
 RMSDP=1.40D-08 MaxDP=4.48D-07 DE=-3.71D-11 OVMax= 1.04D-06

 Cycle   9  Pass 1  IDiag  1:
 E= -56.5553226683579     Delta-E=       -0.000000000006 Rises=F Damp=F
 DIIS: error= 1.51D-08 at cycle   9 NSaved=   9.
 NSaved= 9 IEnMin= 9 EnMin= -56.5553226683579     IErMin= 9 ErrMin= 1.51D-08
 ErrMax= 1.51D-08  0.00D+00 EMaxC= 1.00D-01 BMatC= 1.62D-14 BMatP= 5.91D-12
 IDIUse=1 WtCom= 1.00D+00 WtEn= 0.00D+00
 Coeff-Com: -0.870D-07-0.197D-06-0.197D-05 0.277D-04 0.348D-04-0.222D-02
 Coeff-Com:  0.226D-01 0.693D-01 0.910D+00
 Coeff:     -0.870D-07-0.197D-06-0.197D-05 0.277D-04 0.348D-04-0.222D-02
 Coeff:      0.226D-01 0.693D-01 0.910D+00
 Gap=     0.202 Goal=   None    Shift=    0.000
 RMSDP=1.32D-09 MaxDP=2.71D-08 DE=-6.07D-12 OVMax= 4.45D-08

 SCF Done:  E(RB97D3) =  -56.5553226684     A.U. after    9 cycles
            NFock=  9  Conv=0.13D-08     -V/T= 2.0062
 KE= 5.620591707569D+01 PE=-1.558127569696D+02 EE= 3.114970838380D+01
 Leave Link  502 at Sat Jan 23 23:48:37 2021, MaxMem=  3221225472 cpu:              30.8 elap:               1.5
 (Enter /home/spantaleone/g16/l601.exe)
 Copying SCF densities to generalized density rwf, IOpCl= 0 IROHF=0.

 **********************************************************************

            Population analysis using the SCF Density.

 **********************************************************************

 Orbital symmetries:
       Occupied  (A) (A) (A) (A) (A)
       Virtual   (A) (A) (A) (A) (A) (A) (A) (A) (A) (A) (A) (A)
                 (A) (A) (A) (A) (A) (A) (A) (A) (A) (A) (A) (A)
                 (A) (A) (A) (A) (A) (A) (A) (A) (A) (A) (A) (A)
                 (A) (A) (A) (A) (A) (A) (A) (A) (A) (A) (A) (A)
                 (A) (A) (A) (A) (A) (A) (A) (A) (A) (A) (A) (A)
                 (A) (A) (A) (A) (A) (A) (A) (A) (A) (A) (A) (A)
                 (A) (A) (A) (A) (A) (A) (A) (A) (A) (A) (A) (A)
                 (A) (A) (A) (A) (A) (A) (A) (A) (A) (A) (A) (A)
                 (A) (A) (A) (A) (A) (A) (A) (A) (A) (A) (A) (A)
                 (A) (A)
 The electronic state is 1-A.
 Alpha  occ. eigenvalues --  -13.97712  -0.78012  -0.41754  -0.41498  -0.22623
 Alpha virt. eigenvalues --   -0.02389   0.02171   0.02183   0.06362   0.08401
 Alpha virt. eigenvalues --    0.11081   0.11113   0.11660   0.11719   0.15673
 Alpha virt. eigenvalues --    0.15727   0.16528   0.25981   0.28710   0.29568
 Alpha virt. eigenvalues --    0.29583   0.32203   0.32277   0.32306   0.38115
 Alpha virt. eigenvalues --    0.38139   0.43463   0.46596   0.46689   0.56716
 Alpha virt. eigenvalues --    0.61114   0.61250   0.64688   0.70984   0.76456
 Alpha virt. eigenvalues --    0.76533   0.76641   0.81890   0.81921   0.86945
 Alpha virt. eigenvalues --    0.88677   0.88734   0.94386   0.94884   0.94963
 Alpha virt. eigenvalues --    0.99099   0.99102   1.01949   1.05915   1.06133
 Alpha virt. eigenvalues --    1.11252   1.16104   1.16315   1.37991   1.50402
 Alpha virt. eigenvalues --    1.50545   1.51766   1.58838   1.60089   1.60163
 Alpha virt. eigenvalues --    1.73174   1.74555   1.74931   1.79543   1.79713
 Alpha virt. eigenvalues --    1.95820   2.09099   2.09209   2.09629   2.12967
 Alpha virt. eigenvalues --    2.13125   2.14734   2.98890   3.15074   3.15112
 Alpha virt. eigenvalues --    3.55206   3.58768   3.59026   3.76504   3.76622
 Alpha virt. eigenvalues --    3.78028   3.81954   3.82202   3.84344   3.92931
 Alpha virt. eigenvalues --    3.93105   3.93963   4.06840   4.09997   4.10139
 Alpha virt. eigenvalues --    4.24975   4.31225   4.31426   4.54884   4.55127
 Alpha virt. eigenvalues --    4.58986   4.59554   4.62102   4.62153   4.75290
 Alpha virt. eigenvalues --    5.13372   5.13978   5.24783   5.38022   5.38622
 Alpha virt. eigenvalues --    5.51071   5.79774   5.81421   5.92384   6.09816
 Alpha virt. eigenvalues --    6.39988   6.40791   7.11443   7.12013  16.17506
          Condensed to atoms (all electrons):
              37         38         39         40
    37  N    6.458114   0.310934   0.310938   0.311582
    38  H    0.310934   0.575090  -0.008387  -0.008660
    39  H    0.310938  -0.008387   0.575446  -0.008738
    40  H    0.311582  -0.008660  -0.008738   0.576012
 Mulliken charges:
               1
     1  H    0.000000
     2  O    0.000000
     3  H    0.000000
     4  H    0.000000
     5  O    0.000000
     6  H    0.000000
     7  H    0.000000
     8  O    0.000000
     9  H    0.000000
    10  H    0.000000
    11  O    0.000000
    12  H    0.000000
    13  H    0.000000
    14  O    0.000000
    15  H    0.000000
    16  H    0.000000
    17  O    0.000000
    18  H    0.000000
    19  H    0.000000
    20  O    0.000000
    21  H    0.000000
    22  H    0.000000
    23  O    0.000000
    24  H    0.000000
    25  H    0.000000
    26  O    0.000000
    27  H    0.000000
    28  H    0.000000
    29  O    0.000000
    30  H    0.000000
    31  H    0.000000
    32  O    0.000000
    33  H    0.000000
    34  H    0.000000
    35  O    0.000000
    36  H    0.000000
    37  N   -0.391568
    38  H    0.131023
    39  H    0.130741
    40  H    0.129804
 Sum of Mulliken charges =  -0.00000
 Mulliken charges with hydrogens summed into heavy atoms:
               1
     2  O    0.000000
     5  O    0.000000
     8  O    0.000000
    11  O    0.000000
    14  O    0.000000
    17  O    0.000000
    20  O    0.000000
    23  O    0.000000
    26  O    0.000000
    29  O    0.000000
    32  O    0.000000
    35  O    0.000000
    37  N   -0.000000
         Mulliken charges condensed to fragments:
      1      0.000000
      2     -0.000000
 Electronic spatial extent (au):  <R**2>=            172.7933
 Charge=             -0.0000 electrons
 Dipole moment (field-independent basis, Debye):
    X=              1.2383    Y=             -0.2022    Z=             -0.7139  Tot=              1.4436
 Quadrupole moment (field-independent basis, Debye-Ang):
   XX=             -9.9484   YY=             -6.5548   ZZ=             -4.3703
   XY=              0.7897   XZ=             -0.6829   YZ=             -0.0192
 Traceless Quadrupole moment (field-independent basis, Debye-Ang):
   XX=             -2.9906   YY=              0.4030   ZZ=              2.5875
   XY=              0.7897   XZ=             -0.6829   YZ=             -0.0192
 Octapole moment (field-independent basis, Debye-Ang**2):
  XXX=             15.7061  YYY=             -5.7854  ZZZ=             31.9471  XYY=              4.6617
  XXY=             -2.7615  XXZ=             17.6605  XZZ=              1.8065  YZZ=             -0.8052
  YYZ=             12.8962  XYZ=             -0.7855
 Hexadecapole moment (field-independent basis, Debye-Ang**3):
 XXXX=            -30.6135 YYYY=            -14.2550 ZZZZ=           -139.8168 XXXY=              4.3347
 XXXZ=            -28.7807 YYYX=              3.9238 YYYZ=             11.2611 ZZZX=            -10.2844
 ZZZY=              5.7570 XXYY=             -7.4940 XXZZ=            -37.3427 YYZZ=            -29.8001
 XXYZ=              4.8130 YYXZ=             -8.5437 ZZXY=              1.0027
 N-N= 1.190180884181D+01 E-N=-1.558127562288D+02  KE= 5.620591707569D+01
 No NMR shielding tensors so no spin-rotation constants.
 Leave Link  601 at Sat Jan 23 23:48:38 2021, MaxMem=  3221225472 cpu:               4.7 elap:               0.2
 (Enter /home/spantaleone/g16/l122.exe)
 CPIOFr:  IOpCl= 0 IRwI=-1 IRwCP=  731 ICalc=  4 LCPTot=     2244023 Len1MO=     5967603 IndFrg=    32082038
 Restoring MOs from calculation   1 to rwf.
 CPIOFr:  IOpCl= 0 IRwI=-2 IRwCP=  731 ICalc=  0 LCPTot=     2244023 Len1MO=     5967603 IndFrg=     8211626
 Counterpoise corrected energy =    -973.774186538086
                   BSSE energy =       0.000401203665
              sum of fragments =    -973.751555990200
           complexation energy =     -14.45 kcal/mole (raw)
           complexation energy =     -14.20 kcal/mole (corrected)
 Leave Link  122 at Sat Jan 23 23:48:38 2021, MaxMem=  3221225472 cpu:               3.5 elap:               0.2
 (Enter /home/spantaleone/g16/l9999.exe)
 1\1\GINC-N2696\SP\RB97D3\Aug-CC-pVTZ\H27N1O12\SPANTALEONE\23-Jan-2021\
 0\\#P B97D3/aug-cc-pvtz Counterpoise=2\\Title\\0,1\H,0,6.096179,-1.140
 223,1.22734\O,0,5.520304,-0.331339,1.167221\H,0,6.165319,0.388419,1.22
 9563\H,0,7.238075,-2.977401,4.559519\O,0,6.476393,-3.350719,4.024909\H
 ,0,5.676107,-3.001732,4.494095\H,0,8.262405,1.610593,1.374019\O,0,8.27
 5983,0.686166,1.684844\H,0,8.544193,0.138157,0.916092\H,0,8.141987,-1.
 070242,-0.951741\O,0,8.942108,-0.721993,-0.492435\H,0,9.647882,-1.3763
 25,-0.656733\H,0,9.719308,-4.072146,1.896231\O,0,9.393772,-3.72219,1.0
 23053\H,0,10.150665,-3.585045,0.436824\H,0,6.718213,0.274219,4.319413\
 O,0,7.654714,0.570675,4.268377\H,0,7.919716,0.378,3.34373\H,0,8.118688
 ,-1.886708,6.040035\O,0,8.546977,-2.403044,5.328366\H,0,9.019934,-1.75
 4701,4.752985\H,0,8.240312,0.624987,7.343189\O,0,8.54936,1.30212,6.724
 963\H,0,8.310935,0.922475,5.846611\H,0,6.799353,-2.721578,2.525302\O,0
 ,6.938741,-2.502459,1.565825\H,0,7.889082,-2.611852,1.396314\H,0,10.36
 2709,-2.638448,-2.10059\O,0,10.853148,-2.631213,-1.233187\H,0,11.71485
 7,-2.268598,-1.466159\H,0,9.183946,-5.213473,3.603818\O,0,9.952373,-4.
 608313,3.480006\H,0,9.82261,-3.962198,4.190639\H,0,9.468033,0.942083,-
 0.914593\O,0,9.543003,1.918135,-0.966152\H,0,9.821439,2.072573,-1.8809
 35\N,0,10.244161,-1.193383,3.3441\H,0,9.988578,-0.307271,2.914808\H,0,
 10.280122,-1.879214,2.594291\H,0,11.185347,-1.095888,3.711321\\Version
 =ES64L-G16RevB.01\State=1-A\HF=-56.5553227\RMSD=1.324e-09\Dipole=2.601
 6953,-1.5374476,-1.9461042\Quadrupole=-3.3171389,-17.6031845,20.920323
 4,-1.2223009,-21.7434183,-9.2253726\PG=C01 [X(H27N1O12)]\\@


 YOU CAN WIPE THE SLATE CLEAN, BUT YOU'LL STILL
 HAVE TO EAT A LITTLE CHALK DUST.
 Job cpu time:       0 days 23 hours 20 minutes 52.9 seconds.
 Elapsed time:       0 days  0 hours 58 minutes 26.5 seconds.
 File lengths (MBytes):  RWF=   1096 Int=      0 D2E=      0 Chk=    326 Scr=      1
 Normal termination of Gaussian 16 at Sat Jan 23 23:48:39 2021.
