 Entering Gaussian System
 *********************************************
 Gaussian 98:
 frequency output generated by the xtb code
 *********************************************
                         Standard orientation:
 --------------------------------------------------------------------
  Center     Atomic     Atomic              Coordinates (Angstroms)
  Number     Number      Type              X           Y           Z
 --------------------------------------------------------------------
    1          1             0        1.572483   -6.622432   -3.188101
    2          8             0        1.361798   -6.841770   -4.125547
    3          1             0        2.242472   -6.958420   -4.523977
    4          1             0        2.614762   -5.782357   -1.531589
    5          8             0        1.804014   -6.330922   -1.465404
    6          1             0        1.059557   -5.667915   -1.370471
    7          1             0       -0.292023   -7.657643   -3.339024
    8          8             0       -1.020176   -7.725450   -2.701079
    9          1             0       -0.644878   -8.116997   -1.899301
   10          1             0        0.508706   -8.189944    0.584240
   11          8             0       -0.403867   -8.406990    0.307123
   12          1             0       -0.870693   -8.435203    1.174562
   13          1             0        2.966148   -7.594576    1.008131
   14          8             0        2.070632   -7.233883    0.985863
   15          1             0        2.003112   -6.882727    0.052304
   16          1             0        4.103284   -7.980670   -1.178269
   17          8             0        4.608340   -7.517157   -0.483259
   18          1             0        5.058587   -6.826285   -1.006559
   19          1             0       -1.365765   -6.944834    0.056592
   20          8             0       -1.968989   -6.179525   -0.085608
   21          1             0       -2.559046   -6.471409   -0.795617
   22          1             0        2.533891   -8.845831   -2.814641
   23          8             0        3.497012   -8.925185   -2.804384
   24          1             0        3.756713   -8.340699   -3.538051
 --------------------------------------------------------------------
     1 basis functions        1 primitive gaussians
     1 alpha electrons        1 beta electrons
 
 Harmonic frequencies (cm**-1), IR intensities (KM/Mole),
 Raman scattering activities (A**4/amu), Raman depolarization ratios,
 reduced masses (AMU), force constants (mDyne/A) and normal coordinates:
                      1                      2                      3
                        a                      a                      a 
 Frequencies --   -46.9680               -35.8639               -19.5806
 Red. masses --    14.3733                13.4432                14.0878
 Frc consts  --     0.0000                 0.0000                 0.0000
 IR Inten    --     0.2139                 0.2610                 0.1523
 Raman Activ --     0.0000                 0.0000                 0.0000
 Depolar     --     0.0000                 0.0000                 0.0000
 Atom AN      X      Y      Z        X      Y      Z        X      Y      Z
   1   1    -0.05   0.00   0.02     0.01   0.05  -0.08    -0.03   0.05   0.03
   2   8    -0.10   0.06   0.06     0.03   0.30  -0.33    -0.15   0.07   0.15
   3   1    -0.02   0.03   0.03     0.01   0.08  -0.09    -0.04  -0.00   0.03
   4   1    -0.13  -0.01   0.04    -0.02  -0.10  -0.03     0.06   0.11  -0.00
   5   8    -0.45  -0.13   0.15    -0.07  -0.43  -0.12     0.20   0.49  -0.00
   6   1    -0.13  -0.05   0.05    -0.02  -0.11  -0.03     0.06   0.13   0.01
   7   1    -0.02  -0.02  -0.01     0.03   0.02  -0.04    -0.02  -0.03   0.01
   8   8    -0.07  -0.11  -0.04     0.17   0.13  -0.08    -0.11  -0.25  -0.02
   9   1    -0.01  -0.04  -0.02     0.05   0.02  -0.03    -0.03  -0.05   0.00
  10   1     0.01  -0.05   0.02     0.03  -0.00   0.01     0.02  -0.02  -0.06
  11   8     0.02  -0.10   0.03     0.11  -0.03   0.03     0.10  -0.10  -0.24
  12   1    -0.01  -0.01   0.00     0.03  -0.01   0.01     0.02  -0.03  -0.06
  13   1     0.02  -0.00   0.01     0.03   0.03   0.02     0.01  -0.03  -0.06
  14   8     0.03  -0.10   0.12     0.12   0.08   0.07     0.03  -0.14  -0.23
  15   1    -0.01  -0.02   0.03     0.02  -0.00   0.01     0.01  -0.00  -0.05
  16   1    -0.00   0.02  -0.00     0.02   0.01   0.00     0.02  -0.01   0.02
  17   8    -0.06   0.11  -0.00     0.08   0.09  -0.01     0.13  -0.03   0.05
  18   1    -0.03   0.04   0.01     0.01   0.02  -0.01     0.03  -0.01   0.01
  19   1     0.12   0.03  -0.04    -0.00  -0.03   0.00     0.04  -0.01  -0.03
  20   8     0.64   0.21  -0.32    -0.04  -0.13   0.04     0.14  -0.03  -0.10
  21   1     0.16   0.05  -0.08    -0.01  -0.03   0.01     0.03  -0.01  -0.02
  22   1    -0.00   0.02   0.00    -0.09   0.09   0.25    -0.08   0.04   0.17
  23   8    -0.00   0.07  -0.00    -0.39   0.00   0.39    -0.34  -0.04   0.38
  24   1    -0.00   0.01  -0.00    -0.16  -0.07   0.02    -0.11  -0.05   0.06
                      4                      5                      6
                        a                      a                      a 
 Frequencies --    -6.2187                22.4674                39.3076
 Red. masses --    14.1699                14.3054                14.4459
 Frc consts  --     0.0000                 0.0000                 0.0000
 IR Inten    --     0.1061                 0.2164                 0.1154
 Raman Activ --     0.0000                 0.0000                 0.0000
 Depolar     --     0.0000                 0.0000                 0.0000
 Atom AN      X      Y      Z        X      Y      Z        X      Y      Z
   1   1     0.05   0.04   0.06    -0.03   0.03  -0.01     0.05  -0.01  -0.03
   2   8     0.29   0.18   0.22    -0.05   0.15  -0.06     0.28  -0.16  -0.11
   3   1     0.08   0.09   0.07    -0.01   0.05  -0.01     0.08  -0.03  -0.01
   4   1     0.00   0.04   0.07    -0.08   0.07  -0.04    -0.06   0.07  -0.02
   5   8    -0.00   0.15   0.25    -0.24   0.18  -0.04    -0.19   0.22  -0.12
   6   1     0.00   0.04   0.06    -0.08   0.03  -0.01    -0.06   0.04  -0.05
   7   1     0.07  -0.02  -0.01     0.01  -0.01  -0.01     0.06   0.02   0.03
   8   8     0.24  -0.19  -0.09     0.08  -0.12  -0.01     0.24   0.25   0.15
   9   1     0.06  -0.02  -0.01     0.04  -0.01  -0.00     0.04   0.03   0.03
  10   1     0.00   0.03   0.04     0.06   0.06   0.01     0.00  -0.04  -0.03
  11   8     0.01   0.10   0.17     0.28   0.06   0.05     0.04  -0.30  -0.12
  12   1     0.00   0.04   0.04     0.08   0.01   0.02     0.01  -0.10  -0.03
  13   1     0.00  -0.01   0.03     0.02   0.08  -0.02    -0.06   0.05  -0.05
  14   8     0.04   0.03   0.18     0.12   0.41   0.03    -0.26   0.12  -0.16
  15   1     0.01   0.01   0.05     0.01   0.10   0.01    -0.07   0.04  -0.04
  16   1    -0.06   0.02  -0.08    -0.05  -0.10   0.05    -0.06   0.01   0.00
  17   8    -0.18   0.12  -0.39    -0.11  -0.57   0.27    -0.28   0.10  -0.00
  18   1    -0.05   0.02  -0.12    -0.02  -0.13   0.09    -0.09   0.04  -0.00
  19   1    -0.03  -0.02  -0.03     0.01  -0.04  -0.02     0.06  -0.02   0.07
  20   8    -0.12  -0.09  -0.17    -0.01  -0.19  -0.08     0.26  -0.04   0.35
  21   1    -0.03  -0.03  -0.04    -0.00  -0.06  -0.02     0.05   0.00   0.09
  22   1    -0.07  -0.04  -0.02    -0.02  -0.02  -0.09    -0.02  -0.06  -0.02
  23   8    -0.27  -0.31  -0.17    -0.06   0.05  -0.15    -0.07  -0.20   0.04
  24   1    -0.07  -0.12  -0.08     0.00   0.05  -0.00    -0.01  -0.05   0.01
                      7                      8                      9
                        a                      a                      a 
 Frequencies --    49.1650                56.7083                69.4479
 Red. masses --    14.2545                14.3093                14.3296
 Frc consts  --     0.0000                 0.0000                 0.0000
 IR Inten    --     0.1954                 0.2209                 0.1350
 Raman Activ --     0.0000                 0.0000                 0.0000
 Depolar     --     0.0000                 0.0000                 0.0000
 Atom AN      X      Y      Z        X      Y      Z        X      Y      Z
   1   1     0.01   0.04  -0.04    -0.00  -0.05   0.04     0.00   0.00  -0.00
   2   8    -0.06   0.18  -0.14    -0.11  -0.10   0.17    -0.01  -0.02   0.00
   3   1    -0.03   0.04  -0.06    -0.04  -0.02   0.02    -0.01  -0.02  -0.00
   4   1     0.13  -0.06  -0.01     0.10  -0.07   0.02     0.02   0.04  -0.01
   5   8     0.45  -0.10  -0.14     0.33  -0.18   0.10     0.07   0.16  -0.05
   6   1     0.13  -0.00  -0.04     0.10  -0.02   0.02     0.02   0.05  -0.01
   7   1     0.05  -0.07   0.03    -0.07   0.06  -0.04    -0.05   0.08  -0.14
   8   8     0.17  -0.37   0.10    -0.30   0.16  -0.16    -0.22   0.19  -0.58
   9   1     0.04  -0.08   0.03    -0.07   0.02  -0.05    -0.05   0.04  -0.16
  10   1    -0.05  -0.00   0.06     0.05  -0.00  -0.06    -0.02  -0.01   0.10
  11   8    -0.17  -0.10   0.23     0.26  -0.12  -0.35    -0.10  -0.12   0.56
  12   1    -0.05  -0.02   0.05     0.05  -0.06  -0.10     0.00  -0.02   0.15
  13   1    -0.09   0.01   0.03    -0.02   0.07   0.11    -0.01   0.02  -0.02
  14   8    -0.33   0.09   0.03    -0.04   0.35   0.35    -0.03   0.05  -0.07
  15   1    -0.05   0.01  -0.00     0.01   0.07   0.08    -0.02   0.01  -0.02
  16   1    -0.07   0.01   0.01    -0.06   0.02   0.01     0.02  -0.00   0.01
  17   8    -0.20  -0.04   0.07    -0.20   0.10  -0.02     0.07   0.00   0.03
  18   1    -0.02  -0.03   0.02    -0.03   0.00  -0.02     0.01   0.00   0.01
  19   1     0.04   0.01   0.02     0.04  -0.02  -0.02     0.02  -0.06   0.05
  20   8     0.25   0.10   0.01     0.13  -0.10   0.00     0.17  -0.19   0.07
  21   1     0.06   0.03   0.01     0.04  -0.01  -0.01     0.04  -0.05   0.02
  22   1    -0.03   0.05  -0.06    -0.02  -0.03  -0.03     0.01  -0.02   0.02
  23   8    -0.12   0.23  -0.16    -0.07  -0.09  -0.07     0.05  -0.08   0.06
  24   1    -0.02   0.08  -0.02    -0.01  -0.01  -0.01     0.01  -0.02   0.01
                     10                     11                     12
                        a                      a                      a 
 Frequencies --    74.3483                83.8599               118.3537
 Red. masses --    14.5611                14.5252                14.2595
 Frc consts  --     0.0000                 0.0000                 0.0000
 IR Inten    --     0.1091                 0.2022                 0.2221
 Raman Activ --     0.0000                 0.0000                 0.0000
 Depolar     --     0.0000                 0.0000                 0.0000
 Atom AN      X      Y      Z        X      Y      Z        X      Y      Z
   1   1     0.01  -0.01  -0.00    -0.06   0.09  -0.02    -0.01   0.00  -0.02
   2   8    -0.06  -0.11   0.03    -0.27   0.50  -0.12    -0.07   0.02  -0.05
   3   1    -0.02  -0.04  -0.01    -0.07   0.09  -0.02    -0.02  -0.01  -0.02
   4   1     0.04   0.01  -0.00     0.01  -0.00  -0.02     0.02  -0.00  -0.01
   5   8     0.14   0.05  -0.04     0.03   0.02  -0.05     0.11  -0.02  -0.06
   6   1     0.03   0.01  -0.01     0.01   0.01  -0.01     0.03  -0.01  -0.00
   7   1    -0.02   0.08   0.08    -0.02   0.02   0.04    -0.01   0.01  -0.02
   8   8     0.02   0.45   0.45    -0.07  -0.02   0.17    -0.01   0.01  -0.05
   9   1     0.01   0.06   0.08    -0.01  -0.01   0.04     0.01   0.03  -0.01
  10   1     0.00  -0.01   0.05    -0.01   0.00   0.00     0.08   0.04   0.01
  11   8     0.01  -0.13   0.23    -0.03  -0.06  -0.01     0.28   0.24   0.09
  12   1     0.00  -0.01   0.06    -0.01  -0.01  -0.01     0.08   0.07   0.03
  13   1    -0.01  -0.01  -0.01    -0.02   0.03   0.00     0.06  -0.09  -0.06
  14   8    -0.04  -0.03  -0.05    -0.10   0.08  -0.02     0.24  -0.34  -0.16
  15   1    -0.01  -0.01  -0.01    -0.02   0.02  -0.01     0.06  -0.06  -0.03
  16   1    -0.01   0.01  -0.01     0.05  -0.02   0.01    -0.10  -0.02   0.00
  17   8    -0.00  -0.01  -0.03     0.03   0.08   0.04    -0.68   0.10   0.10
  18   1     0.00  -0.01  -0.01    -0.01   0.03   0.01    -0.20   0.06   0.05
  19   1    -0.01  -0.07  -0.07    -0.00  -0.00  -0.01     0.01   0.01  -0.00
  20   8     0.01  -0.28  -0.54     0.01  -0.02  -0.05    -0.01  -0.02  -0.01
  21   1     0.07  -0.08  -0.19     0.01  -0.00  -0.02    -0.00  -0.02   0.00
  22   1    -0.02   0.02  -0.01     0.10  -0.15   0.06     0.03  -0.06  -0.01
  23   8    -0.09   0.06  -0.01     0.41  -0.57   0.04     0.13   0.01   0.14
  24   1    -0.01   0.02   0.00     0.06  -0.15  -0.01     0.03   0.05   0.07
                     13                     14                     15
                        a                      a                      a 
 Frequencies --   139.3606               153.7063               179.2858
 Red. masses --    13.6261                14.0816                13.6811
 Frc consts  --     0.0000                 0.0000                 0.0000
 IR Inten    --     0.1550                 0.1273                 0.1660
 Raman Activ --     0.0000                 0.0000                 0.0000
 Depolar     --     0.0000                 0.0000                 0.0000
 Atom AN      X      Y      Z        X      Y      Z        X      Y      Z
   1   1    -0.01  -0.02  -0.01    -0.10   0.01   0.02    -0.01  -0.00   0.00
   2   8    -0.07  -0.04  -0.04    -0.58  -0.15   0.15    -0.02  -0.03   0.01
   3   1    -0.02  -0.00  -0.02    -0.17  -0.12   0.01    -0.00  -0.00   0.00
   4   1    -0.01   0.02  -0.02     0.00   0.00   0.01    -0.01  -0.02   0.02
   5   8     0.02  -0.00  -0.02     0.01   0.03   0.06    -0.06  -0.06   0.06
   6   1    -0.01  -0.01  -0.00     0.00   0.01   0.02    -0.02  -0.01   0.00
   7   1     0.01   0.01  -0.01     0.13   0.04  -0.08    -0.01  -0.01  -0.01
   8   8     0.08   0.01  -0.03     0.63   0.15  -0.21    -0.02   0.02  -0.03
   9   1     0.03   0.01  -0.01     0.18   0.03  -0.07     0.01   0.03   0.00
  10   1     0.02  -0.01  -0.00    -0.01  -0.00  -0.00     0.10   0.16   0.03
  11   8     0.04   0.05   0.01    -0.04  -0.01  -0.06     0.46   0.39   0.04
  12   1     0.02   0.02   0.00    -0.02  -0.00  -0.02     0.11   0.07   0.01
  13   1     0.04   0.00   0.01    -0.01  -0.01   0.02    -0.20  -0.15   0.01
  14   8     0.11  -0.14  -0.05    -0.04   0.00   0.08    -0.62  -0.18  -0.05
  15   1     0.03  -0.03  -0.01    -0.00   0.00   0.02    -0.09  -0.01  -0.01
  16   1    -0.04   0.15   0.16    -0.01  -0.01  -0.01     0.06   0.00  -0.02
  17   8     0.17   0.34   0.56     0.00  -0.03  -0.08     0.18  -0.02  -0.03
  18   1     0.07   0.07   0.14     0.00  -0.02  -0.03     0.06  -0.00   0.00
  19   1     0.00   0.00  -0.00    -0.00   0.00  -0.01     0.04  -0.01   0.00
  20   8    -0.01   0.00  -0.01    -0.02   0.03   0.02     0.06  -0.12   0.03
  21   1    -0.01  -0.00   0.00    -0.01   0.02   0.01     0.01  -0.05   0.02
  22   1    -0.09  -0.14  -0.19     0.01  -0.05  -0.00     0.01   0.07   0.07
  23   8    -0.33  -0.24  -0.40     0.04  -0.01   0.06     0.00  -0.00  -0.05
  24   1    -0.06  -0.01  -0.06     0.00   0.05   0.05    -0.02  -0.06  -0.07
                     16                     17                     18
                        a                      a                      a 
 Frequencies --   183.8723               231.8728               276.6052
 Red. masses --     2.7243                13.7629                13.9201
 Frc consts  --     0.0000                 0.0000                 0.0000
 IR Inten    --     0.1448                 0.2026                 0.2582
 Raman Activ --     0.0000                 0.0000                 0.0000
 Depolar     --     0.0000                 0.0000                 0.0000
 Atom AN      X      Y      Z        X      Y      Z        X      Y      Z
   1   1     0.03  -0.05   0.00    -0.00  -0.09   0.20    -0.01   0.02  -0.01
   2   8     0.06   0.10  -0.05     0.05   0.15   0.66    -0.01   0.00  -0.02
   3   1     0.00   0.03  -0.03     0.02   0.14   0.15    -0.00  -0.02   0.00
   4   1    -0.01  -0.01   0.01    -0.01  -0.08  -0.08    -0.00   0.01  -0.00
   5   8    -0.02  -0.04   0.01    -0.03  -0.32  -0.29     0.02  -0.00   0.00
   6   1    -0.01  -0.01  -0.01    -0.02  -0.09  -0.07    -0.00  -0.01   0.01
   7   1    -0.00   0.04   0.02     0.02   0.03   0.01     0.00   0.01   0.02
   8   8    -0.05  -0.03   0.01     0.04   0.01  -0.01     0.00   0.00   0.06
   9   1     0.00   0.04   0.02     0.01  -0.02  -0.01    -0.00   0.01   0.02
  10   1     0.01   0.02  -0.00    -0.01   0.02  -0.02    -0.11   0.11  -0.04
  11   8     0.04   0.04  -0.00    -0.03   0.02   0.00    -0.43   0.49  -0.19
  12   1     0.01   0.01   0.00     0.01  -0.00   0.01    -0.11   0.07  -0.05
  13   1    -0.02  -0.01   0.01     0.00   0.06  -0.10     0.02  -0.01   0.02
  14   8    -0.08  -0.02   0.00    -0.02   0.15  -0.41     0.10   0.03   0.01
  15   1    -0.01  -0.01  -0.00    -0.02   0.00  -0.11     0.04   0.00   0.00
  16   1    -0.11   0.04   0.04     0.03  -0.01  -0.00    -0.04   0.01   0.02
  17   8     0.12   0.01  -0.15    -0.01   0.01   0.04    -0.00   0.01  -0.00
  18   1     0.07  -0.08  -0.11    -0.01   0.02   0.02     0.00  -0.01  -0.02
  19   1     0.00  -0.00   0.00    -0.00  -0.01   0.00     0.12  -0.11  -0.04
  20   8     0.01  -0.02  -0.01     0.01  -0.01   0.01     0.33  -0.51   0.12
  21   1     0.00  -0.01  -0.00    -0.00   0.00   0.01     0.05  -0.13   0.06
  22   1    -0.05  -0.57  -0.39    -0.01  -0.03  -0.01     0.00   0.09  -0.09
  23   8    -0.07   0.00   0.20    -0.01   0.01   0.01    -0.02  -0.02   0.04
  24   1    -0.01   0.44   0.40    -0.02  -0.01  -0.01     0.12  -0.04   0.03
                     19                     20                     21
                        a                      a                      a 
 Frequencies --   289.1924               361.5697               370.1549
 Red. masses --     2.4581                 1.7082                 3.3784
 Frc consts  --     0.0000                 0.0000                 0.0000
 IR Inten    --     0.2636                 0.1040                 0.0920
 Raman Activ --     0.0000                 0.0000                 0.0000
 Depolar     --     0.0000                 0.0000                 0.0000
 Atom AN      X      Y      Z        X      Y      Z        X      Y      Z
   1   1     0.04  -0.09   0.01     0.00   0.02  -0.00    -0.20  -0.27   0.09
   2   8     0.03  -0.09  -0.01     0.00   0.01   0.01    -0.06  -0.12  -0.03
   3   1    -0.01   0.12  -0.07    -0.00  -0.03   0.01     0.09   0.70   0.00
   4   1     0.01   0.00  -0.01     0.02  -0.03   0.03    -0.01   0.02  -0.18
   5   8     0.02   0.04   0.05    -0.04  -0.00   0.04     0.00   0.12  -0.22
   6   1     0.01   0.02  -0.00     0.01   0.03  -0.00     0.01   0.04  -0.06
   7   1     0.00   0.00   0.01     0.01  -0.02   0.01    -0.08  -0.24  -0.12
   8   8     0.00   0.00   0.01    -0.00   0.01  -0.00     0.04   0.06   0.01
   9   1     0.00   0.04   0.02    -0.01   0.02   0.01     0.03  -0.02  -0.03
  10   1    -0.04   0.04   0.00     0.01  -0.06  -0.00    -0.01   0.04   0.01
  11   8    -0.12   0.09  -0.04     0.01   0.02  -0.00    -0.01   0.01   0.00
  12   1    -0.04   0.01  -0.01     0.00   0.05   0.00    -0.01  -0.03  -0.00
  13   1     0.00  -0.01  -0.02     0.08   0.20   0.04    -0.04  -0.13   0.05
  14   8     0.02   0.02   0.03    -0.01  -0.05  -0.08     0.02  -0.11   0.23
  15   1    -0.00   0.02   0.01    -0.03  -0.03  -0.02     0.06   0.05   0.08
  16   1     0.20  -0.06  -0.12    -0.44   0.28   0.12    -0.08   0.08  -0.00
  17   8    -0.03  -0.04   0.03    -0.11   0.03   0.01     0.00  -0.01  -0.02
  18   1    -0.08   0.13   0.13     0.50  -0.47  -0.17     0.06  -0.04   0.00
  19   1     0.02  -0.02  -0.01     0.02   0.00  -0.02    -0.01   0.00   0.03
  20   8     0.07  -0.07  -0.00     0.02  -0.02   0.01    -0.02   0.00   0.03
  21   1    -0.01  -0.03   0.03    -0.03  -0.01   0.03     0.11   0.05  -0.11
  22   1    -0.00  -0.42   0.45     0.03  -0.07   0.20     0.01  -0.00  -0.07
  23   8     0.12   0.07  -0.15     0.13   0.06  -0.00     0.02   0.01   0.08
  24   1    -0.59   0.19  -0.12    -0.17  -0.08  -0.15     0.04  -0.09  -0.04
                     22                     23                     24
                        a                      a                      a 
 Frequencies --   381.8593               390.1158               405.4684
 Red. masses --     2.0292                10.3742                 3.1172
 Frc consts  --     0.0000                 0.0000                 0.0000
 IR Inten    --     0.3974                 0.4086                 0.3104
 Raman Activ --     0.0000                 0.0000                 0.0000
 Depolar     --     0.0000                 0.0000                 0.0000
 Atom AN      X      Y      Z        X      Y      Z        X      Y      Z
   1   1     0.01   0.06  -0.02     0.10   0.07   0.01     0.01   0.01   0.01
   2   8     0.01   0.02  -0.01     0.05   0.10   0.16     0.01   0.02   0.05
   3   1    -0.01  -0.16   0.02    -0.03  -0.33   0.04    -0.00   0.01   0.00
   4   1     0.01  -0.03   0.03    -0.05   0.07  -0.18     0.02  -0.02   0.01
   5   8    -0.03  -0.04   0.07    -0.09   0.13  -0.59    -0.02   0.06  -0.20
   6   1     0.01   0.01   0.03    -0.05   0.01  -0.16     0.02   0.05  -0.08
   7   1     0.03  -0.02   0.02     0.03   0.21   0.07     0.01  -0.02   0.01
   8   8     0.01  -0.03  -0.03    -0.02  -0.05   0.01     0.00  -0.00  -0.02
   9   1    -0.05  -0.10  -0.02     0.01  -0.02  -0.01    -0.02   0.02   0.01
  10   1    -0.04   0.16   0.02    -0.01   0.03   0.04     0.08  -0.34   0.01
  11   8    -0.02   0.04  -0.02     0.02  -0.00   0.00     0.04   0.12  -0.01
  12   1    -0.01  -0.15  -0.01    -0.03  -0.02  -0.02    -0.01   0.16  -0.01
  13   1    -0.05  -0.14  -0.03    -0.07  -0.24   0.11     0.23   0.59   0.16
  14   8     0.05   0.07  -0.09     0.03  -0.15   0.43    -0.10  -0.18   0.15
  15   1     0.06   0.01  -0.02     0.10   0.04   0.12    -0.16  -0.16   0.00
  16   1    -0.01   0.05  -0.03    -0.03   0.08  -0.03     0.08  -0.20   0.09
  17   8    -0.03   0.02  -0.00    -0.00   0.01  -0.02     0.05  -0.02  -0.00
  18   1     0.08  -0.03   0.03     0.08  -0.03   0.03    -0.17   0.03  -0.12
  19   1    -0.08  -0.02   0.23    -0.00  -0.01  -0.02     0.09   0.10   0.10
  20   8    -0.12  -0.04   0.16     0.01  -0.00   0.00    -0.06  -0.05   0.06
  21   1     0.60   0.21  -0.57    -0.02   0.01   0.02     0.24  -0.06  -0.18
  22   1    -0.00  -0.03   0.04     0.00  -0.02   0.07    -0.00   0.01   0.01
  23   8     0.00  -0.00  -0.02     0.01  -0.00  -0.02    -0.01   0.00  -0.03
  24   1    -0.04   0.02   0.00    -0.05   0.03  -0.00    -0.01   0.03   0.01
                     25                     26                     27
                        a                      a                      a 
 Frequencies --   426.1570               451.1317               463.7718
 Red. masses --     1.3221                 1.5620                 1.4439
 Frc consts  --     0.0000                 0.0000                 0.0000
 IR Inten    --     0.3264                 0.5163                 0.4133
 Raman Activ --     0.0000                 0.0000                 0.0000
 Depolar     --     0.0000                 0.0000                 0.0000
 Atom AN      X      Y      Z        X      Y      Z        X      Y      Z
   1   1    -0.12   0.06   0.01    -0.40   0.21   0.02    -0.16   0.04   0.01
   2   8     0.02   0.05   0.01     0.04   0.04  -0.06     0.02   0.01  -0.05
   3   1     0.06  -0.14   0.16     0.19  -0.21   0.44     0.08  -0.08   0.17
   4   1     0.07  -0.13  -0.06     0.01  -0.02  -0.14     0.16  -0.25   0.06
   5   8    -0.05  -0.01  -0.03     0.01  -0.01  -0.04    -0.07  -0.01   0.00
   6   1     0.09   0.11   0.01     0.03   0.01   0.10     0.16   0.20  -0.05
   7   1    -0.03  -0.27  -0.06    -0.01  -0.45  -0.07    -0.09   0.07  -0.09
   8   8    -0.03  -0.08  -0.06     0.04   0.14   0.01     0.00   0.00   0.05
   9   1     0.14   0.78   0.31    -0.19  -0.26  -0.05     0.10  -0.15  -0.11
  10   1    -0.01  -0.01   0.03    -0.00   0.07  -0.04     0.06  -0.29   0.04
  11   8    -0.02  -0.02  -0.01     0.01  -0.03   0.02     0.01   0.03  -0.00
  12   1    -0.02  -0.12  -0.01     0.03   0.09   0.02    -0.06   0.23  -0.03
  13   1    -0.01  -0.04  -0.03    -0.01   0.01   0.16    -0.00  -0.07  -0.41
  14   8     0.02   0.00   0.01    -0.02  -0.00  -0.01     0.03   0.02   0.07
  15   1    -0.00   0.02   0.01     0.12  -0.05  -0.03    -0.31   0.13   0.09
  16   1     0.04  -0.01  -0.02     0.01  -0.08   0.05     0.11   0.17  -0.21
  17   8    -0.01   0.01   0.00     0.01   0.02   0.00    -0.04  -0.02  -0.02
  18   1     0.02   0.00   0.02    -0.06  -0.00  -0.07     0.17   0.07   0.25
  19   1    -0.04  -0.00   0.15    -0.01  -0.05  -0.13     0.11   0.06  -0.10
  20   8     0.02  -0.00  -0.04     0.03  -0.03   0.01    -0.02  -0.05   0.04
  21   1     0.03  -0.08   0.00    -0.09   0.10   0.04     0.04   0.00  -0.03
  22   1    -0.01  -0.03  -0.04    -0.00  -0.05   0.06    -0.01  -0.10  -0.11
  23   8    -0.01   0.03   0.00    -0.00   0.00  -0.05    -0.02   0.03   0.06
  24   1     0.01  -0.04  -0.03    -0.07   0.12   0.05     0.02  -0.08  -0.04
                     28                     29                     30
                        a                      a                      a 
 Frequencies --   472.0563               487.2440               501.7394
 Red. masses --     1.6810                 1.6512                 1.9384
 Frc consts  --     0.0000                 0.0000                 0.0000
 IR Inten    --     0.2101                 0.3801                 0.2740
 Raman Activ --     0.0000                 0.0000                 0.0000
 Depolar     --     0.0000                 0.0000                 0.0000
 Atom AN      X      Y      Z        X      Y      Z        X      Y      Z
   1   1     0.12   0.06  -0.03     0.09  -0.03  -0.01     0.02   0.00  -0.00
   2   8    -0.05   0.01   0.05    -0.02  -0.01   0.01    -0.00  -0.02   0.03
   3   1    -0.07   0.04  -0.13    -0.04   0.05  -0.10    -0.02   0.06  -0.04
   4   1    -0.04   0.06   0.04     0.07  -0.11   0.02     0.12  -0.19   0.11
   5   8     0.02  -0.02  -0.02    -0.07   0.02  -0.03    -0.08   0.01  -0.04
   6   1    -0.06  -0.06  -0.09     0.07   0.10  -0.03     0.10   0.16  -0.13
   7   1     0.35  -0.34   0.31     0.11   0.03   0.12     0.06  -0.06   0.05
   8   8     0.06   0.09  -0.14     0.00  -0.04  -0.04     0.01   0.03  -0.02
   9   1    -0.54  -0.01   0.21    -0.09   0.14   0.10    -0.11  -0.07   0.01
  10   1     0.07  -0.16  -0.13     0.06  -0.01  -0.21    -0.08   0.15   0.23
  11   8    -0.03   0.00   0.01    -0.02  -0.03   0.02     0.06   0.01  -0.00
  12   1     0.10   0.10   0.07     0.16   0.23   0.11    -0.17  -0.17  -0.11
  13   1    -0.03  -0.10  -0.15     0.01   0.03  -0.02    -0.01  -0.13  -0.34
  14   8     0.02   0.02   0.05    -0.01  -0.02   0.04     0.08  -0.03   0.06
  15   1    -0.07   0.09   0.05    -0.03   0.04   0.03    -0.22   0.14   0.09
  16   1    -0.01   0.12  -0.09     0.06  -0.11   0.04    -0.03  -0.32   0.29
  17   8    -0.01  -0.03  -0.02     0.00   0.04   0.03     0.04   0.13   0.08
  18   1     0.06   0.04   0.11    -0.03  -0.02  -0.06    -0.11  -0.17  -0.36
  19   1     0.08   0.09   0.11    -0.30  -0.35  -0.30     0.04   0.03  -0.04
  20   8    -0.01  -0.00  -0.03     0.10  -0.10   0.07    -0.00   0.00  -0.02
  21   1     0.03  -0.17   0.03    -0.11   0.58  -0.11    -0.03  -0.03   0.03
  22   1     0.00   0.01  -0.03    -0.00  -0.03  -0.04     0.01   0.11   0.12
  23   8    -0.00  -0.02   0.01     0.00   0.04   0.02     0.01  -0.05  -0.09
  24   1     0.03   0.01   0.02     0.01  -0.07  -0.05    -0.03   0.15   0.10
                     31                     32                     33
                        a                      a                      a 
 Frequencies --   516.2220               521.4866               548.9306
 Red. masses --     2.2339                 1.6827                 2.2710
 Frc consts  --     0.0000                 0.0000                 0.0000
 IR Inten    --     0.4703                 0.3630                 0.9819
 Raman Activ --     0.0000                 0.0000                 0.0000
 Depolar     --     0.0000                 0.0000                 0.0000
 Atom AN      X      Y      Z        X      Y      Z        X      Y      Z
   1   1     0.09   0.03  -0.01    -0.03   0.07  -0.01     0.11  -0.09   0.01
   2   8     0.02  -0.00   0.07    -0.03  -0.04  -0.01    -0.00   0.10   0.02
   3   1    -0.04   0.02  -0.09     0.01   0.08   0.01    -0.05  -0.20  -0.03
   4   1    -0.10   0.20   0.19     0.06  -0.08   0.15    -0.15   0.26  -0.01
   5   8     0.08  -0.01  -0.05    -0.04   0.02  -0.08     0.13  -0.02   0.04
   6   1    -0.14  -0.18  -0.07     0.05   0.07   0.00    -0.17  -0.22  -0.12
   7   1    -0.16  -0.27  -0.20     0.15   0.00   0.16    -0.09  -0.28  -0.13
   8   8    -0.02   0.01   0.04     0.00   0.01  -0.04    -0.01   0.05   0.01
   9   1     0.14   0.10  -0.01    -0.18  -0.03   0.06     0.02  -0.00  -0.01
  10   1     0.01  -0.14   0.08    -0.13   0.28   0.36    -0.05  -0.01   0.22
  11   8     0.02   0.03   0.01     0.13   0.03   0.02     0.05   0.02  -0.00
  12   1    -0.08   0.08  -0.04    -0.25  -0.31  -0.16    -0.18  -0.02  -0.11
  13   1     0.01   0.01  -0.09     0.12   0.28   0.12     0.03   0.04  -0.21
  14   8    -0.00   0.02   0.01     0.02  -0.04   0.02     0.01  -0.03   0.04
  15   1    -0.08   0.00   0.01    -0.07  -0.24  -0.08    -0.17   0.07   0.05
  16   1     0.04   0.11  -0.11     0.11   0.15  -0.22    -0.22   0.10   0.10
  17   8    -0.05   0.00  -0.02    -0.05  -0.05  -0.05     0.10  -0.07  -0.02
  18   1     0.17  -0.02   0.12     0.14   0.08   0.24    -0.25   0.13  -0.06
  19   1    -0.05  -0.08  -0.12    -0.04  -0.07  -0.13    -0.02  -0.05  -0.12
  20   8     0.01  -0.03   0.03     0.02  -0.01  -0.00     0.00  -0.02   0.03
  21   1    -0.02   0.18  -0.05    -0.11   0.14   0.04    -0.01   0.15  -0.04
  22   1     0.02   0.30   0.22    -0.01  -0.02  -0.09    -0.01  -0.23  -0.12
  23   8    -0.02  -0.21  -0.13    -0.03  -0.01   0.03     0.03   0.14   0.10
  24   1     0.04   0.39   0.33     0.05  -0.03   0.00    -0.05  -0.28  -0.24
                     34                     35                     36
                        a                      a                      a 
 Frequencies --   563.8189               599.7238               617.3903
 Red. masses --     2.0545                 1.9366                 2.2253
 Frc consts  --     0.0000                 0.0000                 0.0000
 IR Inten    --     0.0896                 0.8533                 0.4284
 Raman Activ --     0.0000                 0.0000                 0.0000
 Depolar     --     0.0000                 0.0000                 0.0000
 Atom AN      X      Y      Z        X      Y      Z        X      Y      Z
   1   1    -0.07   0.04   0.00     0.26  -0.13   0.00     0.12  -0.44   0.09
   2   8     0.01  -0.00  -0.01    -0.00   0.10   0.08     0.02   0.13  -0.02
   3   1     0.04  -0.04   0.09    -0.13  -0.15  -0.21    -0.08  -0.20  -0.11
   4   1    -0.02   0.05   0.01     0.11  -0.16   0.27    -0.02  -0.07  -0.68
   5   8     0.06  -0.01  -0.03    -0.11   0.05  -0.03    -0.02   0.01   0.22
   6   1    -0.05  -0.05  -0.10     0.06   0.15  -0.25     0.07   0.09   0.06
   7   1    -0.06   0.01  -0.06    -0.17  -0.40  -0.23     0.02  -0.08   0.00
   8   8     0.01   0.01   0.03     0.01   0.09   0.06     0.02   0.02  -0.01
   9   1     0.04  -0.10  -0.06     0.07  -0.13  -0.09    -0.06  -0.04   0.01
  10   1     0.01   0.27  -0.29    -0.02   0.24  -0.15    -0.03   0.09   0.07
  11   8    -0.08   0.09  -0.02    -0.03  -0.08   0.00     0.02  -0.02   0.01
  12   1     0.33  -0.36   0.17     0.11   0.06   0.06    -0.07  -0.00  -0.04
  13   1     0.14   0.29  -0.25    -0.00  -0.00   0.16     0.07   0.17  -0.04
  14   8    -0.01  -0.14   0.12     0.02  -0.01   0.01    -0.03  -0.07  -0.04
  15   1    -0.25   0.16   0.12     0.09  -0.11  -0.05    -0.00   0.14   0.05
  16   1    -0.00   0.06  -0.05     0.20  -0.12  -0.07     0.08   0.01  -0.07
  17   8     0.01  -0.02  -0.02    -0.07   0.05   0.02    -0.05   0.02  -0.02
  18   1     0.02   0.03   0.06     0.13  -0.07   0.02     0.10  -0.02   0.07
  19   1    -0.25  -0.15   0.27     0.09   0.07  -0.01     0.04   0.02  -0.06
  20   8     0.06   0.05  -0.09    -0.01   0.01  -0.01    -0.01  -0.01   0.00
  21   1    -0.06  -0.05   0.07    -0.00  -0.10   0.04    -0.01   0.02  -0.01
  22   1     0.00   0.02   0.01    -0.01  -0.09  -0.12     0.00   0.12   0.05
  23   8    -0.00  -0.02   0.00    -0.02   0.06   0.04    -0.02  -0.04  -0.03
  24   1     0.01   0.03   0.03     0.02  -0.11  -0.08     0.06   0.09   0.10
                     37                     38                     39
                        a                      a                      a 
 Frequencies --   664.9230               695.9528               758.9203
 Red. masses --     2.2748                 1.7732                 2.4573
 Frc consts  --     0.0000                 0.0000                 0.0000
 IR Inten    --     0.5910                 0.5743                 1.3556
 Raman Activ --     0.0000                 0.0000                 0.0000
 Depolar     --     0.0000                 0.0000                 0.0000
 Atom AN      X      Y      Z        X      Y      Z        X      Y      Z
   1   1    -0.14  -0.17   0.06    -0.20  -0.63   0.17     0.08  -0.18   0.04
   2   8    -0.03   0.03  -0.09    -0.03   0.12  -0.14     0.01   0.05   0.00
   3   1     0.07  -0.04   0.16     0.09  -0.16   0.23    -0.05  -0.09  -0.08
   4   1    -0.14   0.27   0.08     0.03  -0.00   0.36     0.05  -0.07   0.01
   5   8     0.13   0.00   0.00     0.00   0.03   0.03    -0.05   0.04  -0.07
   6   1    -0.17  -0.23  -0.01    -0.02   0.04  -0.32     0.08   0.07   0.24
   7   1     0.05   0.10   0.07     0.08   0.13   0.09    -0.03  -0.13  -0.05
   8   8    -0.00  -0.02  -0.02     0.02  -0.03  -0.02     0.02   0.05   0.03
   9   1    -0.04   0.04   0.03    -0.08   0.03   0.05    -0.04  -0.16  -0.06
  10   1     0.00  -0.06   0.06     0.01   0.01  -0.03     0.10  -0.53   0.11
  11   8     0.01   0.00   0.00    -0.00  -0.01   0.00     0.00   0.24  -0.02
  12   1    -0.05   0.00  -0.03     0.02   0.05   0.01     0.02  -0.37  -0.01
  13   1     0.00  -0.00  -0.08    -0.02  -0.04   0.09    -0.08  -0.16   0.05
  14   8     0.00  -0.01   0.02     0.02   0.03  -0.03     0.01   0.11   0.00
  15   1    -0.00   0.05   0.02     0.04  -0.06  -0.03    -0.01  -0.21  -0.09
  16   1     0.46  -0.37  -0.08    -0.16   0.13   0.03     0.02  -0.04   0.01
  17   8    -0.16   0.14   0.05     0.06  -0.05  -0.02    -0.01   0.03   0.01
  18   1     0.35  -0.29  -0.08    -0.12   0.09   0.02     0.02  -0.03  -0.03
  19   1    -0.01  -0.00   0.01    -0.03  -0.01   0.04    -0.28  -0.19   0.23
  20   8     0.00   0.00   0.01     0.01  -0.01  -0.00     0.08  -0.01  -0.07
  21   1     0.00   0.01  -0.00    -0.00  -0.01   0.00    -0.10   0.03   0.07
  22   1    -0.02  -0.09  -0.13     0.01   0.10   0.11    -0.00  -0.02  -0.01
  23   8    -0.05   0.07   0.03    -0.00  -0.03  -0.04     0.01   0.01   0.01
  24   1     0.02  -0.11  -0.09     0.01   0.07   0.05    -0.01  -0.03  -0.03
                     40                     41                     42
                        a                      a                      a 
 Frequencies --   817.9621               837.6333               914.3674
 Red. masses --     1.8037                 2.0324                 2.1984
 Frc consts  --     0.0000                 0.0000                 0.0000
 IR Inten    --     0.5328                 0.2240                 0.9053
 Raman Activ --     0.0000                 0.0000                 0.0000
 Depolar     --     0.0000                 0.0000                 0.0000
 Atom AN      X      Y      Z        X      Y      Z        X      Y      Z
   1   1     0.01  -0.03   0.01     0.01  -0.21   0.05    -0.04   0.15  -0.03
   2   8     0.00   0.01   0.01     0.01   0.04  -0.02    -0.00  -0.02   0.00
   3   1    -0.01   0.01  -0.02    -0.01  -0.06  -0.01     0.02   0.06   0.03
   4   1    -0.01   0.02  -0.05    -0.04   0.08   0.06    -0.05   0.04  -0.34
   5   8     0.01   0.02  -0.05     0.02   0.02  -0.17     0.04   0.00   0.23
   6   1     0.01  -0.01   0.18     0.03  -0.05   0.52    -0.06   0.01  -0.56
   7   1    -0.00  -0.00  -0.00     0.01  -0.01   0.00    -0.00   0.06   0.01
   8   8     0.00   0.01  -0.00     0.01  -0.01  -0.01    -0.00  -0.01  -0.00
   9   1    -0.00  -0.03  -0.01    -0.01   0.07   0.04     0.02   0.02   0.00
  10   1    -0.08   0.25   0.07    -0.00   0.16  -0.18     0.02  -0.05  -0.04
  11   8     0.06  -0.15  -0.08    -0.05  -0.03   0.02    -0.02   0.02  -0.01
  12   1    -0.17   0.55  -0.09     0.19  -0.09   0.11     0.09  -0.09   0.05
  13   1    -0.00  -0.03  -0.11    -0.01  -0.05  -0.20    -0.06  -0.15  -0.04
  14   8     0.04   0.04   0.08     0.03   0.07   0.14     0.05   0.12   0.07
  15   1    -0.18  -0.29  -0.09    -0.28  -0.39  -0.11    -0.21  -0.55  -0.20
  16   1    -0.01   0.00   0.01    -0.04   0.01   0.03     0.01  -0.03   0.01
  17   8     0.00   0.00   0.00     0.01   0.00   0.01    -0.02   0.02   0.00
  18   1     0.00  -0.01  -0.01    -0.02  -0.01  -0.03     0.03  -0.04  -0.02
  19   1    -0.33  -0.17   0.44     0.27   0.16  -0.28     0.03   0.01  -0.05
  20   8     0.08   0.02  -0.06    -0.07  -0.01   0.04    -0.00  -0.01   0.01
  21   1    -0.01  -0.13   0.06     0.05   0.02  -0.05    -0.00   0.03  -0.01
  22   1     0.00   0.01   0.00     0.00   0.02   0.03     0.00   0.01   0.01
  23   8     0.00   0.00  -0.01     0.01  -0.01  -0.00     0.00   0.00  -0.01
  24   1     0.01   0.01   0.01    -0.01   0.01   0.00     0.00   0.01   0.01
                     43                     44                     45
                        a                      a                      a 
 Frequencies --  1547.5682              1564.6626              1574.5891
 Red. masses --     2.1430                 2.0804                 2.0670
 Frc consts  --     0.0000                 0.0000                 0.0000
 IR Inten    --     0.5080                 0.8038                 0.3016
 Raman Activ --     0.0000                 0.0000                 0.0000
 Depolar     --     0.0000                 0.0000                 0.0000
 Atom AN      X      Y      Z        X      Y      Z        X      Y      Z
   1   1    -0.01   0.02  -0.01     0.25  -0.03  -0.04     0.32  -0.00  -0.07
   2   8     0.00  -0.00   0.01    -0.09  -0.01  -0.04    -0.10  -0.02  -0.04
   3   1    -0.00   0.00  -0.01     0.10   0.05   0.21     0.13   0.08   0.24
   4   1    -0.36   0.53   0.06     0.02  -0.04  -0.02    -0.02   0.02  -0.00
   5   8    -0.03  -0.27  -0.00    -0.00   0.02  -0.00    -0.01  -0.01  -0.01
   6   1     0.45   0.53  -0.04    -0.03  -0.03   0.01     0.03   0.03   0.02
   7   1     0.05  -0.03   0.05     0.31  -0.20   0.32    -0.12   0.06  -0.13
   8   8    -0.03   0.01  -0.00    -0.17   0.05  -0.03     0.06  -0.02   0.01
   9   1     0.07  -0.01  -0.04     0.42  -0.02  -0.21    -0.15   0.00   0.07
  10   1     0.01  -0.01  -0.03    -0.04  -0.01   0.14     0.06   0.01  -0.22
  11   8     0.01   0.00   0.01    -0.02  -0.00  -0.05     0.03   0.01   0.08
  12   1    -0.03  -0.01  -0.02     0.13   0.02   0.07    -0.18  -0.04  -0.11
  13   1     0.01   0.02  -0.04    -0.01  -0.02   0.07     0.00   0.00  -0.01
  14   8    -0.02  -0.00   0.00     0.02   0.00  -0.02    -0.00  -0.00   0.01
  15   1     0.06   0.00   0.00    -0.08   0.02   0.02    -0.00  -0.01  -0.00
  16   1     0.03   0.03  -0.05    -0.01  -0.02   0.03    -0.01  -0.02   0.02
  17   8    -0.00  -0.00   0.02    -0.00   0.00  -0.01     0.00   0.00  -0.01
  18   1    -0.02  -0.02  -0.05     0.01   0.01   0.03     0.01   0.01   0.02
  19   1    -0.02  -0.02  -0.01    -0.14  -0.15  -0.22     0.12   0.14   0.20
  20   8     0.00   0.01   0.00     0.00   0.10   0.05     0.00  -0.09  -0.05
  21   1     0.01  -0.02   0.00     0.13  -0.25  -0.01    -0.12   0.23   0.01
  22   1     0.00   0.00  -0.01    -0.01  -0.15   0.20    -0.02  -0.29   0.36
  23   8     0.00  -0.00   0.00    -0.06   0.05  -0.06    -0.11   0.10  -0.12
  24   1    -0.01   0.00  -0.00     0.24  -0.05   0.05     0.45  -0.10   0.10
                     46                     47                     48
                        a                      a                      a 
 Frequencies --  1589.3969              1596.0578              1603.8574
 Red. masses --     2.0382                 2.0278                 2.1004
 Frc consts  --     0.0000                 0.0000                 0.0000
 IR Inten    --     0.2232                 0.5252                 0.4533
 Raman Activ --     0.0000                 0.0000                 0.0000
 Depolar     --     0.0000                 0.0000                 0.0000
 Atom AN      X      Y      Z        X      Y      Z        X      Y      Z
   1   1     0.03   0.02  -0.01    -0.15   0.00   0.03    -0.24   0.02   0.04
   2   8    -0.00  -0.01   0.00     0.05   0.01   0.02     0.08   0.01   0.04
   3   1     0.01   0.01   0.01    -0.06  -0.02  -0.12    -0.10  -0.03  -0.19
   4   1    -0.02   0.03   0.01     0.04  -0.06   0.02    -0.02   0.02   0.00
   5   8    -0.01  -0.02  -0.00    -0.01   0.03   0.00     0.01  -0.01  -0.01
   6   1     0.04   0.04  -0.00    -0.03  -0.03  -0.03     0.00   0.00   0.01
   7   1    -0.25   0.15  -0.27     0.10  -0.05   0.10     0.08  -0.04   0.08
   8   8     0.15  -0.04   0.02    -0.06   0.02  -0.01    -0.05   0.01  -0.00
   9   1    -0.36   0.02   0.18     0.14  -0.01  -0.07     0.12  -0.01  -0.06
  10   1    -0.11  -0.02   0.41    -0.03  -0.02   0.12    -0.09   0.02   0.31
  11   8    -0.06  -0.02  -0.14    -0.02  -0.00  -0.04    -0.05  -0.02  -0.12
  12   1     0.34   0.07   0.19     0.11   0.02   0.06     0.27   0.07   0.15
  13   1     0.01   0.01  -0.03     0.08   0.15  -0.51    -0.04  -0.07   0.26
  14   8    -0.01  -0.00   0.01    -0.17   0.01   0.15     0.09  -0.01  -0.08
  15   1     0.06   0.01  -0.01     0.62  -0.17  -0.13    -0.30   0.10   0.07
  16   1     0.02   0.03  -0.04     0.01   0.06  -0.06     0.09   0.13  -0.16
  17   8     0.00  -0.00   0.02     0.01  -0.01   0.03    -0.00  -0.01   0.08
  18   1    -0.02  -0.02  -0.04    -0.04  -0.02  -0.07    -0.09  -0.07  -0.18
  19   1    -0.14  -0.16  -0.23     0.07   0.08   0.11     0.18   0.20   0.26
  20   8     0.00   0.10   0.06     0.00  -0.05  -0.03    -0.00  -0.12  -0.07
  21   1     0.13  -0.25  -0.01    -0.06   0.12   0.01    -0.15   0.30   0.01
  22   1    -0.01  -0.13   0.15    -0.01  -0.08   0.10    -0.01  -0.10   0.11
  23   8    -0.05   0.04  -0.05    -0.03   0.02  -0.03    -0.04   0.03  -0.03
  24   1     0.20  -0.04   0.04     0.13  -0.03   0.03     0.16  -0.04   0.03
                     49                     50                     51
                        a                      a                      a 
 Frequencies --  1605.2179              1619.2370              3060.9027
 Red. masses --     2.0774                 2.0630                 1.8361
 Frc consts  --     0.0000                 0.0000                 0.0000
 IR Inten    --     0.6515                 0.4562                 0.7481
 Raman Activ --     0.0000                 0.0000                 0.0000
 Depolar     --     0.0000                 0.0000                 0.0000
 Atom AN      X      Y      Z        X      Y      Z        X      Y      Z
   1   1    -0.40   0.03   0.07    -0.30   0.02   0.05    -0.00   0.00   0.01
   2   8     0.14   0.01   0.06     0.10   0.01   0.05     0.00  -0.00  -0.00
   3   1    -0.16  -0.06  -0.32    -0.12  -0.05  -0.25    -0.00   0.00  -0.00
   4   1     0.02  -0.03   0.01    -0.04   0.06   0.02    -0.02   0.01   0.00
   5   8     0.01   0.02  -0.00     0.01  -0.02  -0.01    -0.14   0.12   0.01
   6   1    -0.04  -0.04  -0.01     0.03   0.03  -0.00     0.56  -0.47  -0.07
   7   1     0.01   0.01   0.01     0.01  -0.00   0.01     0.00  -0.00  -0.00
   8   8    -0.00  -0.00  -0.00    -0.01   0.00   0.00     0.00   0.00   0.00
   9   1    -0.01   0.01   0.01     0.01  -0.00  -0.01    -0.00   0.00  -0.00
  10   1     0.09  -0.00  -0.32    -0.01   0.00   0.03    -0.09  -0.02  -0.02
  11   8     0.05   0.02   0.12    -0.01  -0.00  -0.01     0.02   0.01   0.00
  12   1    -0.27  -0.07  -0.16     0.03   0.01   0.02     0.00  -0.00   0.01
  13   1    -0.01  -0.01   0.04    -0.01  -0.01   0.03     0.03  -0.01  -0.02
  14   8     0.02   0.00  -0.01     0.01  -0.00  -0.01    -0.03   0.06  -0.14
  15   1    -0.07   0.00   0.01    -0.04   0.01   0.00     0.06  -0.24   0.58
  16   1     0.09   0.15  -0.18    -0.21  -0.37   0.42    -0.00  -0.01  -0.00
  17   8     0.00  -0.01   0.09    -0.01   0.04  -0.22     0.00   0.00  -0.00
  18   1    -0.10  -0.08  -0.20     0.24   0.18   0.48    -0.00  -0.00   0.00
  19   1    -0.13  -0.15  -0.20     0.01   0.01   0.01    -0.03   0.04  -0.01
  20   8     0.00   0.09   0.05    -0.00  -0.01  -0.00     0.01  -0.01   0.00
  21   1     0.12  -0.22  -0.01    -0.01   0.02   0.00     0.00  -0.00   0.00
  22   1    -0.01  -0.17   0.20    -0.01  -0.12   0.13     0.00  -0.00   0.00
  23   8    -0.06   0.05  -0.06    -0.04   0.05  -0.04    -0.00   0.00  -0.00
  24   1     0.26  -0.06   0.05     0.16  -0.05   0.02     0.00  -0.00   0.00
                     52                     53                     54
                        a                      a                      a 
 Frequencies --  3099.8684              3223.9383              3234.0911
 Red. masses --     1.8334                 1.8724                 1.8467
 Frc consts  --     0.0000                 0.0000                 0.0000
 IR Inten    --     0.8976                 0.6981                 0.9849
 Raman Activ --     0.0000                 0.0000                 0.0000
 Depolar     --     0.0000                 0.0000                 0.0000
 Atom AN      X      Y      Z        X      Y      Z        X      Y      Z
   1   1     0.04   0.05   0.22    -0.16  -0.22  -0.89    -0.00   0.00   0.00
   2   8    -0.01  -0.01  -0.06     0.02   0.05   0.22     0.00  -0.00  -0.00
   3   1    -0.01  -0.00  -0.00     0.06  -0.00   0.00    -0.00   0.00   0.00
   4   1    -0.05  -0.06   0.00    -0.13  -0.09   0.01     0.01   0.01  -0.00
   5   8     0.13  -0.08  -0.02     0.06   0.00  -0.01    -0.00  -0.00   0.00
   6   1    -0.47   0.39   0.06    -0.10   0.08   0.02    -0.01   0.01   0.00
   7   1     0.01  -0.00  -0.01    -0.03  -0.00   0.03    -0.00   0.00   0.00
   8   8    -0.00  -0.00   0.00     0.01   0.00  -0.01    -0.00   0.00  -0.01
   9   1    -0.01   0.00  -0.00     0.00  -0.00   0.00     0.01  -0.01   0.02
  10   1    -0.11  -0.02  -0.03    -0.02  -0.01  -0.00    -0.26  -0.05  -0.07
  11   8     0.03   0.01   0.00     0.00   0.00   0.00     0.05   0.02   0.04
  12   1    -0.00   0.00   0.02    -0.00  -0.00   0.00     0.07  -0.00  -0.09
  13   1     0.04  -0.01  -0.02     0.01  -0.00  -0.00    -0.02   0.01   0.00
  14   8    -0.03   0.06  -0.15    -0.01   0.01  -0.03     0.00  -0.01   0.02
  15   1     0.07  -0.27   0.64     0.02  -0.06   0.15    -0.01   0.04  -0.09
  16   1    -0.01  -0.01  -0.01     0.02   0.01   0.02     0.01   0.01   0.01
  17   8     0.00   0.00   0.00    -0.00  -0.00  -0.00    -0.00  -0.00  -0.00
  18   1    -0.00  -0.00   0.00     0.00  -0.00   0.00     0.00   0.00  -0.00
  19   1    -0.02   0.03  -0.00    -0.01   0.01  -0.00    -0.57   0.70  -0.17
  20   8     0.01  -0.01   0.00     0.00  -0.00   0.00     0.15  -0.16   0.05
  21   1    -0.00  -0.00  -0.00     0.00  -0.00   0.00    -0.00  -0.04  -0.02
  22   1    -0.00  -0.00   0.00     0.00   0.00  -0.01     0.00   0.00  -0.00
  23   8     0.00   0.00  -0.00    -0.00   0.00   0.00    -0.00  -0.00   0.00
  24   1     0.00  -0.00   0.00    -0.00   0.00  -0.00    -0.00   0.00  -0.00
                     55                     56                     57
                        a                      a                      a 
 Frequencies --  3274.0859              3332.3847              3342.0227
 Red. masses --     2.0785                 1.6267                 1.7924
 Frc consts  --     0.0000                 0.0000                 0.0000
 IR Inten    --     0.5666                 0.3866                 0.2071
 Raman Activ --     0.0000                 0.0000                 0.0000
 Depolar     --     0.0000                 0.0000                 0.0000
 Atom AN      X      Y      Z        X      Y      Z        X      Y      Z
   1   1    -0.00  -0.00  -0.01    -0.00  -0.00  -0.01     0.03   0.03   0.13
   2   8     0.00   0.00   0.00     0.00   0.00   0.00    -0.00  -0.01  -0.03
   3   1    -0.00  -0.00  -0.00    -0.00   0.00   0.00    -0.01   0.00   0.00
   4   1     0.01   0.01  -0.00     0.04   0.03  -0.00    -0.80  -0.51   0.07
   5   8    -0.00  -0.00   0.00    -0.01  -0.01   0.00     0.18   0.13  -0.01
   6   1     0.01  -0.01  -0.00    -0.00  -0.00  -0.00     0.08  -0.03  -0.01
   7   1     0.01  -0.00  -0.00     0.01  -0.00  -0.00     0.00   0.00  -0.00
   8   8     0.00  -0.00   0.01     0.00  -0.00   0.01    -0.00  -0.00   0.00
   9   1    -0.01   0.01  -0.01    -0.01   0.01  -0.02    -0.00   0.00  -0.00
  10   1    -0.58  -0.13  -0.17    -0.64  -0.14  -0.14    -0.03  -0.01  -0.01
  11   8     0.23   0.04  -0.11     0.08   0.03   0.17     0.00   0.00   0.01
  12   1    -0.35  -0.03   0.63     0.34   0.04  -0.54     0.01   0.00  -0.02
  13   1    -0.03   0.01   0.00    -0.04   0.01  -0.00    -0.00   0.00   0.00
  14   8     0.01  -0.01   0.02     0.01  -0.01   0.01     0.00  -0.01   0.02
  15   1    -0.01   0.04  -0.09    -0.00   0.03  -0.06    -0.01   0.04  -0.08
  16   1     0.02   0.02   0.02     0.06   0.05   0.07     0.03   0.03   0.04
  17   8    -0.01  -0.00  -0.00    -0.02  -0.02  -0.01    -0.01  -0.01  -0.01
  18   1     0.00   0.00  -0.00     0.01   0.02  -0.02     0.01   0.01  -0.01
  19   1     0.07  -0.08   0.02     0.18  -0.22   0.05     0.00  -0.01   0.00
  20   8    -0.02   0.02  -0.01    -0.04   0.05  -0.01    -0.00   0.00  -0.00
  21   1     0.00   0.00   0.00     0.01   0.01   0.01     0.00   0.00   0.00
  22   1     0.01  -0.00  -0.00     0.01  -0.00  -0.00    -0.00   0.00   0.00
  23   8    -0.00   0.00   0.00    -0.00   0.00   0.00     0.00  -0.00   0.00
  24   1    -0.00   0.00  -0.00    -0.00  -0.00   0.00     0.00   0.00  -0.00
                     58                     59                     60
                        a                      a                      a 
 Frequencies --  3354.7814              3420.5182              3447.3401
 Red. masses --     1.9881                 1.6946                 1.8071
 Frc consts  --     0.0000                 0.0000                 0.0000
 IR Inten    --     0.6689                 0.1895                 0.1519
 Raman Activ --     0.0000                 0.0000                 0.0000
 Depolar     --     0.0000                 0.0000                 0.0000
 Atom AN      X      Y      Z        X      Y      Z        X      Y      Z
   1   1     0.00   0.01   0.02     0.00   0.00   0.01    -0.02   0.02   0.07
   2   8     0.00  -0.00  -0.00     0.00  -0.00  -0.00    -0.21   0.03   0.09
   3   1    -0.01   0.00   0.00    -0.02   0.00   0.01     0.85  -0.12  -0.43
   4   1     0.05   0.03  -0.00     0.00  -0.00   0.00     0.00   0.00   0.00
   5   8    -0.01  -0.01  -0.00     0.00  -0.00  -0.00    -0.00   0.00  -0.00
   6   1    -0.00   0.00   0.00    -0.00   0.00   0.00     0.00  -0.00  -0.00
   7   1     0.00   0.00  -0.01    -0.00   0.00   0.00     0.08   0.01  -0.07
   8   8    -0.00  -0.00   0.00     0.00   0.00  -0.00    -0.02  -0.00   0.02
   9   1    -0.00   0.00  -0.00     0.00  -0.00   0.00    -0.00  -0.00   0.01
  10   1     0.10   0.02   0.02     0.00   0.00   0.00    -0.00   0.00  -0.00
  11   8    -0.02  -0.00  -0.02    -0.00  -0.00   0.00    -0.00  -0.00   0.00
  12   1    -0.03  -0.00   0.05     0.00   0.00  -0.00     0.00   0.00  -0.00
  13   1    -0.00   0.00  -0.01    -0.00   0.00  -0.00     0.00  -0.00   0.00
  14   8    -0.00   0.00  -0.01    -0.00  -0.00   0.00    -0.00  -0.00   0.00
  15   1     0.01  -0.01   0.03     0.00   0.00  -0.00    -0.00   0.00  -0.00
  16   1     0.48   0.45   0.62     0.18   0.18   0.19     0.01   0.01   0.01
  17   8    -0.15  -0.17  -0.11     0.07   0.12  -0.16     0.00   0.00  -0.00
  18   1     0.13   0.20  -0.17    -0.45  -0.67   0.45    -0.01  -0.01   0.01
  19   1    -0.02   0.02  -0.00    -0.00   0.00  -0.00    -0.00   0.00  -0.00
  20   8     0.00  -0.00   0.00     0.00  -0.00   0.00    -0.00  -0.00  -0.00
  21   1    -0.00  -0.00  -0.00    -0.00  -0.00  -0.00     0.00   0.00   0.00
  22   1     0.03  -0.00   0.00     0.03  -0.00   0.00    -0.01   0.00  -0.00
  23   8    -0.01   0.01  -0.00    -0.01  -0.00   0.01     0.01   0.01  -0.01
  24   1    -0.01  -0.02   0.02     0.01   0.02  -0.02    -0.02  -0.04   0.05
                     61                     62                     63
                        a                      a                      a 
 Frequencies --  3452.1282              3480.3981              3517.4696
 Red. masses --     1.9113                 1.8814                 1.8080
 Frc consts  --     0.0000                 0.0000                 0.0000
 IR Inten    --     0.1958                 0.4206                 0.3322
 Raman Activ --     0.0000                 0.0000                 0.0000
 Depolar     --     0.0000                 0.0000                 0.0000
 Atom AN      X      Y      Z        X      Y      Z        X      Y      Z
   1   1    -0.00   0.00   0.01    -0.01  -0.02  -0.05    -0.00  -0.00  -0.00
   2   8    -0.02   0.00   0.01     0.02  -0.00  -0.00    -0.00   0.00   0.00
   3   1     0.06  -0.01  -0.03    -0.09   0.02   0.05     0.01  -0.00  -0.01
   4   1     0.00   0.00  -0.00    -0.00  -0.00  -0.00     0.00   0.00  -0.00
   5   8    -0.00  -0.00   0.00     0.00   0.00   0.00     0.00  -0.00   0.00
   6   1     0.00  -0.00  -0.00    -0.00   0.00   0.00    -0.00  -0.00  -0.00
   7   1     0.01   0.00  -0.01     0.70   0.08  -0.65    -0.04  -0.02   0.07
   8   8    -0.00  -0.00   0.01    -0.16  -0.03   0.17     0.10  -0.09   0.19
   9   1    -0.00   0.00  -0.01    -0.05   0.03  -0.04    -0.35   0.39  -0.81
  10   1     0.00   0.00   0.00     0.01   0.00   0.00     0.02   0.01   0.01
  11   8    -0.00  -0.00  -0.00    -0.00  -0.00  -0.00    -0.00  -0.00  -0.00
  12   1     0.00   0.00  -0.00     0.00   0.00  -0.00    -0.00   0.00   0.00
  13   1    -0.00   0.00  -0.00    -0.00   0.00  -0.00    -0.00   0.00  -0.00
  14   8     0.00   0.00  -0.00     0.00  -0.00   0.00     0.00  -0.00   0.00
  15   1     0.00  -0.00   0.00     0.00   0.00  -0.00    -0.00   0.00  -0.01
  16   1     0.01   0.00   0.01    -0.00  -0.00  -0.01    -0.00  -0.00  -0.00
  17   8    -0.01  -0.01   0.00     0.00   0.00   0.00     0.00   0.00   0.00
  18   1     0.02   0.03  -0.02    -0.00  -0.00   0.00    -0.00  -0.00   0.00
  19   1     0.00  -0.00   0.00    -0.01   0.01  -0.00    -0.02   0.02  -0.00
  20   8     0.00   0.00  -0.00     0.00  -0.00   0.00     0.01  -0.00   0.01
  21   1    -0.00  -0.00   0.00    -0.01  -0.00  -0.01    -0.04  -0.02  -0.05
  22   1     0.15  -0.03   0.02    -0.01   0.00  -0.00     0.03  -0.00  -0.00
  23   8    -0.11  -0.13   0.17     0.00   0.00  -0.00    -0.01   0.00  -0.00
  24   1     0.29   0.56  -0.72    -0.00  -0.01   0.01    -0.01  -0.01   0.01
                     64                     65                     66
                        a                      a                      a 
 Frequencies --  3532.8308              3549.1478              3558.1322
 Red. masses --     1.8199                 1.7588                 1.8167
 Frc consts  --     0.0000                 0.0000                 0.0000
 IR Inten    --     0.1849                 0.2644                 0.3134
 Raman Activ --     0.0000                 0.0000                 0.0000
 Depolar     --     0.0000                 0.0000                 0.0000
 Atom AN      X      Y      Z        X      Y      Z        X      Y      Z
   1   1     0.00  -0.00  -0.00    -0.00  -0.00  -0.00    -0.00  -0.00  -0.00
   2   8    -0.00   0.00   0.00    -0.00   0.00   0.00     0.00   0.00   0.00
   3   1     0.00  -0.00  -0.00     0.00  -0.00  -0.00    -0.00   0.00   0.00
   4   1     0.00  -0.00  -0.00     0.00   0.00   0.00     0.00   0.00  -0.00
   5   8    -0.00   0.00  -0.00    -0.00  -0.00   0.00    -0.00  -0.00   0.00
   6   1     0.00  -0.00   0.00     0.00  -0.00  -0.00     0.00  -0.00  -0.00
   7   1    -0.00  -0.00   0.00    -0.01  -0.00   0.01     0.00   0.00  -0.00
   8   8    -0.00   0.01  -0.01     0.00  -0.00   0.00     0.00  -0.00   0.00
   9   1     0.02  -0.03   0.05    -0.01   0.01  -0.03    -0.00   0.00  -0.00
  10   1    -0.01  -0.00  -0.00    -0.00  -0.00  -0.00    -0.04  -0.01  -0.01
  11   8     0.00   0.00   0.00     0.00   0.00   0.00     0.01   0.00   0.00
  12   1     0.00   0.00  -0.00    -0.00   0.00   0.00     0.00   0.00  -0.00
  13   1    -0.00   0.00  -0.00    -0.01   0.00  -0.00     0.89  -0.37   0.06
  14   8     0.00  -0.00  -0.00     0.00  -0.00   0.00    -0.22   0.09  -0.00
  15   1    -0.00  -0.00   0.00    -0.00  -0.00   0.00    -0.03   0.03  -0.06
  16   1     0.00   0.00   0.00     0.02   0.02   0.03     0.01   0.00   0.01
  17   8    -0.00  -0.00  -0.00    -0.00  -0.00  -0.01    -0.00  -0.00  -0.00
  18   1     0.00   0.00  -0.00    -0.00  -0.01   0.00     0.00  -0.00  -0.00
  19   1     0.05  -0.03   0.03    -0.00   0.00  -0.00     0.00   0.00   0.00
  20   8     0.14   0.07   0.17    -0.00  -0.00  -0.00     0.00   0.00   0.00
  21   1    -0.61  -0.26  -0.71     0.01   0.00   0.01    -0.00  -0.00  -0.00
  22   1    -0.01   0.00   0.00    -0.96   0.04   0.02    -0.01   0.00  -0.00
  23   8     0.00  -0.00   0.00     0.22  -0.03   0.02     0.00  -0.00   0.00
  24   1     0.00   0.00  -0.00     0.08   0.09  -0.12     0.00   0.00  -0.00
