 Entering Gaussian System
 *********************************************
 Gaussian 98:
 frequency output generated by the xtb code
 *********************************************
                         Standard orientation:
 --------------------------------------------------------------------
  Center     Atomic     Atomic              Coordinates (Angstroms)
  Number     Number      Type              X           Y           Z
 --------------------------------------------------------------------
    1          1             0        1.572483   -6.622432   -3.188101
    2          8             0        1.361798   -6.841770   -4.125547
    3          1             0        2.242472   -6.958420   -4.523977
    4          1             0        2.614762   -5.782357   -1.531589
    5          8             0        1.804014   -6.330922   -1.465404
    6          1             0        1.059557   -5.667915   -1.370471
    7          1             0       -0.292023   -7.657643   -3.339024
    8          8             0       -1.020176   -7.725450   -2.701079
    9          1             0       -0.644878   -8.116997   -1.899301
   10          1             0        0.508706   -8.189944    0.584240
   11          8             0       -0.403867   -8.406990    0.307123
   12          1             0       -0.870693   -8.435203    1.174562
   13          1             0        2.966148   -7.594576    1.008131
   14          8             0        2.070632   -7.233883    0.985863
   15          1             0        2.003112   -6.882727    0.052304
   16          1             0        4.103284   -7.980670   -1.178269
   17          8             0        4.608340   -7.517157   -0.483259
   18          1             0        5.058587   -6.826285   -1.006559
   19          1             0       -1.365765   -6.944834    0.056592
   20          8             0       -1.968989   -6.179525   -0.085608
   21          1             0       -2.559046   -6.471409   -0.795617
   22          1             0        2.533891   -8.845831   -2.814641
   23          8             0        3.497012   -8.925185   -2.804384
   24          1             0        3.756713   -8.340699   -3.538051
 --------------------------------------------------------------------
     1 basis functions        1 primitive gaussians
     1 alpha electrons        1 beta electrons
 
 Harmonic frequencies (cm**-1), IR intensities (KM/Mole),
 Raman scattering activities (A**4/amu), Raman depolarization ratios,
 reduced masses (AMU), force constants (mDyne/A) and normal coordinates:
                      1                      2                      3
                        a                      a                      a 
 Frequencies --   -46.9680               -35.8639               -19.5806
 Red. masses --    99.0000                99.0000                99.0000
 Frc consts  --    99.0000                99.0000                99.0000
 IR Inten    --    99.0000                99.0000                99.0000
 Raman Activ --     0.0000                 0.0000                 0.0000
 Depolar     --     0.0000                 0.0000                 0.0000
 Atom AN      X      Y      Z        X      Y      Z        X      Y      Z
   1   1    -0.05   0.00   0.02     0.01   0.05  -0.08    -0.03   0.05   0.03
   2   8    -0.10   0.06   0.06     0.03   0.30  -0.33    -0.15   0.07   0.15
   3   1    -0.02   0.03   0.03     0.01   0.08  -0.09    -0.04  -0.00   0.03
   4   1    -0.13  -0.01   0.04    -0.02  -0.10  -0.03     0.06   0.11  -0.00
   5   8    -0.45  -0.13   0.15    -0.07  -0.43  -0.12     0.20   0.49  -0.00
   6   1    -0.13  -0.05   0.05    -0.02  -0.11  -0.03     0.06   0.13   0.01
   7   1    -0.02  -0.02  -0.01     0.03   0.02  -0.04    -0.02  -0.03   0.01
   8   8    -0.07  -0.11  -0.04     0.17   0.13  -0.08    -0.11  -0.25  -0.02
   9   1    -0.01  -0.04  -0.02     0.05   0.02  -0.03    -0.03  -0.05   0.00
  10   1     0.01  -0.05   0.02     0.03  -0.00   0.01     0.02  -0.02  -0.06
  11   8     0.02  -0.10   0.03     0.11  -0.03   0.03     0.10  -0.10  -0.24
  12   1    -0.01  -0.01   0.00     0.03  -0.01   0.01     0.02  -0.03  -0.06
  13   1     0.02  -0.00   0.01     0.03   0.03   0.02     0.01  -0.03  -0.06
  14   8     0.03  -0.10   0.12     0.12   0.08   0.07     0.03  -0.14  -0.23
  15   1    -0.01  -0.02   0.03     0.02  -0.00   0.01     0.01  -0.00  -0.05
  16   1    -0.00   0.02  -0.00     0.02   0.01   0.00     0.02  -0.01   0.02
  17   8    -0.06   0.11  -0.00     0.08   0.09  -0.01     0.13  -0.03   0.05
  18   1    -0.03   0.04   0.01     0.01   0.02  -0.01     0.03  -0.01   0.01
  19   1     0.12   0.03  -0.04    -0.00  -0.03   0.00     0.04  -0.01  -0.03
  20   8     0.64   0.21  -0.32    -0.04  -0.13   0.04     0.14  -0.03  -0.10
  21   1     0.16   0.05  -0.08    -0.01  -0.03   0.01     0.03  -0.01  -0.02
  22   1    -0.00   0.02   0.00    -0.09   0.09   0.25    -0.08   0.04   0.17
  23   8    -0.00   0.07  -0.00    -0.39   0.00   0.39    -0.34  -0.04   0.38
  24   1    -0.00   0.01  -0.00    -0.16  -0.07   0.02    -0.11  -0.05   0.06
                      4                      5                      6
                        a                      a                      a 
 Frequencies --    -6.2187                22.4674                39.3076
 Red. masses --    99.0000                99.0000                99.0000
 Frc consts  --    99.0000                99.0000                99.0000
 IR Inten    --    99.0000                99.0000                99.0000
 Raman Activ --     0.0000                 0.0000                 0.0000
 Depolar     --     0.0000                 0.0000                 0.0000
 Atom AN      X      Y      Z        X      Y      Z        X      Y      Z
   1   1     0.05   0.04   0.06    -0.03   0.03  -0.01     0.05  -0.01  -0.03
   2   8     0.29   0.18   0.22    -0.05   0.15  -0.06     0.28  -0.16  -0.11
   3   1     0.08   0.09   0.07    -0.01   0.05  -0.01     0.08  -0.03  -0.01
   4   1     0.00   0.04   0.07    -0.08   0.07  -0.04    -0.06   0.07  -0.02
   5   8    -0.00   0.15   0.25    -0.24   0.18  -0.04    -0.19   0.22  -0.12
   6   1     0.00   0.04   0.06    -0.08   0.03  -0.01    -0.06   0.04  -0.05
   7   1     0.07  -0.02  -0.01     0.01  -0.01  -0.01     0.06   0.02   0.03
   8   8     0.24  -0.19  -0.09     0.08  -0.12  -0.01     0.24   0.25   0.15
   9   1     0.06  -0.02  -0.01     0.04  -0.01  -0.00     0.04   0.03   0.03
  10   1     0.00   0.03   0.04     0.06   0.06   0.01     0.00  -0.04  -0.03
  11   8     0.01   0.10   0.17     0.28   0.06   0.05     0.04  -0.30  -0.12
  12   1     0.00   0.04   0.04     0.08   0.01   0.02     0.01  -0.10  -0.03
  13   1     0.00  -0.01   0.03     0.02   0.08  -0.02    -0.06   0.05  -0.05
  14   8     0.04   0.03   0.18     0.12   0.41   0.03    -0.26   0.12  -0.16
  15   1     0.01   0.01   0.05     0.01   0.10   0.01    -0.07   0.04  -0.04
  16   1    -0.06   0.02  -0.08    -0.05  -0.10   0.05    -0.06   0.01   0.00
  17   8    -0.18   0.12  -0.39    -0.11  -0.57   0.27    -0.28   0.10  -0.00
  18   1    -0.05   0.02  -0.12    -0.02  -0.13   0.09    -0.09   0.04  -0.00
  19   1    -0.03  -0.02  -0.03     0.01  -0.04  -0.02     0.06  -0.02   0.07
  20   8    -0.12  -0.09  -0.17    -0.01  -0.19  -0.08     0.26  -0.04   0.35
  21   1    -0.03  -0.03  -0.04    -0.00  -0.06  -0.02     0.05   0.00   0.09
  22   1    -0.07  -0.04  -0.02    -0.02  -0.02  -0.09    -0.02  -0.06  -0.02
  23   8    -0.27  -0.31  -0.17    -0.06   0.05  -0.15    -0.07  -0.20   0.04
  24   1    -0.07  -0.12  -0.08     0.00   0.05  -0.00    -0.01  -0.05   0.01
                      7                      8                      9
                        a                      a                      a 
 Frequencies --    56.7083                74.3483                69.4479
 Red. masses --    99.0000                99.0000                99.0000
 Frc consts  --    99.0000                99.0000                99.0000
 IR Inten    --    99.0000                99.0000                99.0000
 Raman Activ --     0.0000                 0.0000                 0.0000
 Depolar     --     0.0000                 0.0000                 0.0000
 Atom AN      X      Y      Z        X      Y      Z        X      Y      Z
   1   1    -0.00  -0.05   0.04     0.01  -0.01  -0.00     0.00   0.00  -0.00
   2   8    -0.11  -0.10   0.17    -0.06  -0.11   0.03    -0.01  -0.02   0.00
   3   1    -0.04  -0.02   0.02    -0.02  -0.04  -0.01    -0.01  -0.02  -0.00
   4   1     0.10  -0.07   0.02     0.04   0.01  -0.00     0.02   0.04  -0.01
   5   8     0.33  -0.18   0.10     0.14   0.05  -0.04     0.07   0.16  -0.05
   6   1     0.10  -0.02   0.02     0.03   0.01  -0.01     0.02   0.05  -0.01
   7   1    -0.07   0.06  -0.04    -0.02   0.08   0.08    -0.05   0.08  -0.14
   8   8    -0.30   0.16  -0.16     0.02   0.45   0.45    -0.22   0.19  -0.58
   9   1    -0.07   0.02  -0.05     0.01   0.06   0.08    -0.05   0.04  -0.16
  10   1     0.05  -0.00  -0.06     0.00  -0.01   0.05    -0.02  -0.01   0.10
  11   8     0.26  -0.12  -0.35     0.01  -0.13   0.23    -0.10  -0.12   0.56
  12   1     0.05  -0.06  -0.10     0.00  -0.01   0.06     0.00  -0.02   0.15
  13   1    -0.02   0.07   0.11    -0.01  -0.01  -0.01    -0.01   0.02  -0.02
  14   8    -0.04   0.35   0.35    -0.04  -0.03  -0.05    -0.03   0.05  -0.07
  15   1     0.01   0.07   0.08    -0.01  -0.01  -0.01    -0.02   0.01  -0.02
  16   1    -0.06   0.02   0.01    -0.01   0.01  -0.01     0.02  -0.00   0.01
  17   8    -0.20   0.10  -0.02    -0.00  -0.01  -0.03     0.07   0.00   0.03
  18   1    -0.03   0.00  -0.02     0.00  -0.01  -0.01     0.01   0.00   0.01
  19   1     0.04  -0.02  -0.02    -0.01  -0.07  -0.07     0.02  -0.06   0.05
  20   8     0.13  -0.10   0.00     0.01  -0.28  -0.54     0.17  -0.19   0.07
  21   1     0.04  -0.01  -0.01     0.07  -0.08  -0.19     0.04  -0.05   0.02
  22   1    -0.02  -0.03  -0.03    -0.02   0.02  -0.01     0.01  -0.02   0.02
  23   8    -0.07  -0.09  -0.07    -0.09   0.06  -0.01     0.05  -0.08   0.06
  24   1    -0.01  -0.01  -0.01    -0.01   0.02   0.00     0.01  -0.02   0.01
                     10                     11                     12
                        a                      a                      a 
 Frequencies --    49.1650                83.8599               118.3537
 Red. masses --    99.0000                99.0000                99.0000
 Frc consts  --    99.0000                99.0000                99.0000
 IR Inten    --    99.0000                99.0000                99.0000
 Raman Activ --     0.0000                 0.0000                 0.0000
 Depolar     --     0.0000                 0.0000                 0.0000
 Atom AN      X      Y      Z        X      Y      Z        X      Y      Z
   1   1     0.01   0.04  -0.04    -0.06   0.09  -0.02    -0.01   0.00  -0.02
   2   8    -0.06   0.18  -0.14    -0.27   0.50  -0.12    -0.07   0.02  -0.05
   3   1    -0.03   0.04  -0.06    -0.07   0.09  -0.02    -0.02  -0.01  -0.02
   4   1     0.13  -0.06  -0.01     0.01  -0.00  -0.02     0.02  -0.00  -0.01
   5   8     0.45  -0.10  -0.14     0.03   0.02  -0.05     0.11  -0.02  -0.06
   6   1     0.13  -0.00  -0.04     0.01   0.01  -0.01     0.03  -0.01  -0.00
   7   1     0.05  -0.07   0.03    -0.02   0.02   0.04    -0.01   0.01  -0.02
   8   8     0.17  -0.37   0.10    -0.07  -0.02   0.17    -0.01   0.01  -0.05
   9   1     0.04  -0.08   0.03    -0.01  -0.01   0.04     0.01   0.03  -0.01
  10   1    -0.05  -0.00   0.06    -0.01   0.00   0.00     0.08   0.04   0.01
  11   8    -0.17  -0.10   0.23    -0.03  -0.06  -0.01     0.28   0.24   0.09
  12   1    -0.05  -0.02   0.05    -0.01  -0.01  -0.01     0.08   0.07   0.03
  13   1    -0.09   0.01   0.03    -0.02   0.03   0.00     0.06  -0.09  -0.06
  14   8    -0.33   0.09   0.03    -0.10   0.08  -0.02     0.24  -0.34  -0.16
  15   1    -0.05   0.01  -0.00    -0.02   0.02  -0.01     0.06  -0.06  -0.03
  16   1    -0.07   0.01   0.01     0.05  -0.02   0.01    -0.10  -0.02   0.00
  17   8    -0.20  -0.04   0.07     0.03   0.08   0.04    -0.68   0.10   0.10
  18   1    -0.02  -0.03   0.02    -0.01   0.03   0.01    -0.20   0.06   0.05
  19   1     0.04   0.01   0.02    -0.00  -0.00  -0.01     0.01   0.01  -0.00
  20   8     0.25   0.10   0.01     0.01  -0.02  -0.05    -0.01  -0.02  -0.01
  21   1     0.06   0.03   0.01     0.01  -0.00  -0.02    -0.00  -0.02   0.00
  22   1    -0.03   0.05  -0.06     0.10  -0.15   0.06     0.03  -0.06  -0.01
  23   8    -0.12   0.23  -0.16     0.41  -0.57   0.04     0.13   0.01   0.14
  24   1    -0.02   0.08  -0.02     0.06  -0.15  -0.01     0.03   0.05   0.07
                     13                     14                     15
                        a                      a                      a 
 Frequencies --   153.7063               139.3606               381.8593
 Red. masses --    99.0000                99.0000                99.0000
 Frc consts  --    99.0000                99.0000                99.0000
 IR Inten    --    99.0000                99.0000                99.0000
 Raman Activ --     0.0000                 0.0000                 0.0000
 Depolar     --     0.0000                 0.0000                 0.0000
 Atom AN      X      Y      Z        X      Y      Z        X      Y      Z
   1   1    -0.10   0.01   0.02    -0.01  -0.02  -0.01     0.01   0.06  -0.02
   2   8    -0.58  -0.15   0.15    -0.07  -0.04  -0.04     0.01   0.02  -0.01
   3   1    -0.17  -0.12   0.01    -0.02  -0.00  -0.02    -0.01  -0.16   0.02
   4   1     0.00   0.00   0.01    -0.01   0.02  -0.02     0.01  -0.03   0.03
   5   8     0.01   0.03   0.06     0.02  -0.00  -0.02    -0.03  -0.04   0.07
   6   1     0.00   0.01   0.02    -0.01  -0.01  -0.00     0.01   0.01   0.03
   7   1     0.13   0.04  -0.08     0.01   0.01  -0.01     0.03  -0.02   0.02
   8   8     0.63   0.15  -0.21     0.08   0.01  -0.03     0.01  -0.03  -0.03
   9   1     0.18   0.03  -0.07     0.03   0.01  -0.01    -0.05  -0.10  -0.02
  10   1    -0.01  -0.00  -0.00     0.02  -0.01  -0.00    -0.04   0.16   0.02
  11   8    -0.04  -0.01  -0.06     0.04   0.05   0.01    -0.02   0.04  -0.02
  12   1    -0.02  -0.00  -0.02     0.02   0.02   0.00    -0.01  -0.15  -0.01
  13   1    -0.01  -0.01   0.02     0.04   0.00   0.01    -0.05  -0.14  -0.03
  14   8    -0.04   0.00   0.08     0.11  -0.14  -0.05     0.05   0.07  -0.09
  15   1    -0.00   0.00   0.02     0.03  -0.03  -0.01     0.06   0.01  -0.02
  16   1    -0.01  -0.01  -0.01    -0.04   0.15   0.16    -0.01   0.05  -0.03
  17   8     0.00  -0.03  -0.08     0.17   0.34   0.56    -0.03   0.02  -0.00
  18   1     0.00  -0.02  -0.03     0.07   0.07   0.14     0.08  -0.03   0.03
  19   1    -0.00   0.00  -0.01     0.00   0.00  -0.00    -0.08  -0.02   0.23
  20   8    -0.02   0.03   0.02    -0.01   0.00  -0.01    -0.12  -0.04   0.16
  21   1    -0.01   0.02   0.01    -0.01  -0.00   0.00     0.60   0.21  -0.57
  22   1     0.01  -0.05  -0.00    -0.09  -0.14  -0.19    -0.00  -0.03   0.04
  23   8     0.04  -0.01   0.06    -0.33  -0.24  -0.40     0.00  -0.00  -0.02
  24   1     0.00   0.05   0.05    -0.06  -0.01  -0.06    -0.04   0.02   0.00
                     16                     17                     18
                        a                      a                      a 
 Frequencies --   276.6052               179.2858               183.8723
 Red. masses --    99.0000                99.0000                99.0000
 Frc consts  --    99.0000                99.0000                99.0000
 IR Inten    --    99.0000                99.0000                99.0000
 Raman Activ --     0.0000                 0.0000                 0.0000
 Depolar     --     0.0000                 0.0000                 0.0000
 Atom AN      X      Y      Z        X      Y      Z        X      Y      Z
   1   1    -0.01   0.02  -0.01    -0.01  -0.00   0.00     0.03  -0.05   0.00
   2   8    -0.01   0.00  -0.02    -0.02  -0.03   0.01     0.06   0.10  -0.05
   3   1    -0.00  -0.02   0.00    -0.00  -0.00   0.00     0.00   0.03  -0.03
   4   1    -0.00   0.01  -0.00    -0.01  -0.02   0.02    -0.01  -0.01   0.01
   5   8     0.02  -0.00   0.00    -0.06  -0.06   0.06    -0.02  -0.04   0.01
   6   1    -0.00  -0.01   0.01    -0.02  -0.01   0.00    -0.01  -0.01  -0.01
   7   1     0.00   0.01   0.02    -0.01  -0.01  -0.01    -0.00   0.04   0.02
   8   8     0.00   0.00   0.06    -0.02   0.02  -0.03    -0.05  -0.03   0.01
   9   1    -0.00   0.01   0.02     0.01   0.03   0.00     0.00   0.04   0.02
  10   1    -0.11   0.11  -0.04     0.10   0.16   0.03     0.01   0.02  -0.00
  11   8    -0.43   0.49  -0.19     0.46   0.39   0.04     0.04   0.04  -0.00
  12   1    -0.11   0.07  -0.05     0.11   0.07   0.01     0.01   0.01   0.00
  13   1     0.02  -0.01   0.02    -0.20  -0.15   0.01    -0.02  -0.01   0.01
  14   8     0.10   0.03   0.01    -0.62  -0.18  -0.05    -0.08  -0.02   0.00
  15   1     0.04   0.00   0.00    -0.09  -0.01  -0.01    -0.01  -0.01  -0.00
  16   1    -0.04   0.01   0.02     0.06   0.00  -0.02    -0.11   0.04   0.04
  17   8    -0.00   0.01  -0.00     0.18  -0.02  -0.03     0.12   0.01  -0.15
  18   1     0.00  -0.01  -0.02     0.06  -0.00   0.00     0.07  -0.08  -0.11
  19   1     0.12  -0.11  -0.04     0.04  -0.01   0.00     0.00  -0.00   0.00
  20   8     0.33  -0.51   0.12     0.06  -0.12   0.03     0.01  -0.02  -0.01
  21   1     0.05  -0.13   0.06     0.01  -0.05   0.02     0.00  -0.01  -0.00
  22   1     0.00   0.09  -0.09     0.01   0.07   0.07    -0.05  -0.57  -0.39
  23   8    -0.02  -0.02   0.04     0.00  -0.00  -0.05    -0.07   0.00   0.20
  24   1     0.12  -0.04   0.03    -0.02  -0.06  -0.07    -0.01   0.44   0.40
                     19                     20                     21
                        a                      a                      a 
 Frequencies --   472.0563               289.1924               487.2440
 Red. masses --    99.0000                99.0000                99.0000
 Frc consts  --    99.0000                99.0000                99.0000
 IR Inten    --    99.0000                99.0000                99.0000
 Raman Activ --     0.0000                 0.0000                 0.0000
 Depolar     --     0.0000                 0.0000                 0.0000
 Atom AN      X      Y      Z        X      Y      Z        X      Y      Z
   1   1     0.12   0.06  -0.03     0.04  -0.09   0.01     0.09  -0.03  -0.01
   2   8    -0.05   0.01   0.05     0.03  -0.09  -0.01    -0.02  -0.01   0.01
   3   1    -0.07   0.04  -0.13    -0.01   0.12  -0.07    -0.04   0.05  -0.10
   4   1    -0.04   0.06   0.04     0.01   0.00  -0.01     0.07  -0.11   0.02
   5   8     0.02  -0.02  -0.02     0.02   0.04   0.05    -0.07   0.02  -0.03
   6   1    -0.06  -0.06  -0.09     0.01   0.02  -0.00     0.07   0.10  -0.03
   7   1     0.35  -0.34   0.31     0.00   0.00   0.01     0.11   0.03   0.12
   8   8     0.06   0.09  -0.14     0.00   0.00   0.01     0.00  -0.04  -0.04
   9   1    -0.54  -0.01   0.21     0.00   0.04   0.02    -0.09   0.14   0.10
  10   1     0.07  -0.16  -0.13    -0.04   0.04   0.00     0.06  -0.01  -0.21
  11   8    -0.03   0.00   0.01    -0.12   0.09  -0.04    -0.02  -0.03   0.02
  12   1     0.10   0.10   0.07    -0.04   0.01  -0.01     0.16   0.23   0.11
  13   1    -0.03  -0.10  -0.15     0.00  -0.01  -0.02     0.01   0.03  -0.02
  14   8     0.02   0.02   0.05     0.02   0.02   0.03    -0.01  -0.02   0.04
  15   1    -0.07   0.09   0.05    -0.00   0.02   0.01    -0.03   0.04   0.03
  16   1    -0.01   0.12  -0.09     0.20  -0.06  -0.12     0.06  -0.11   0.04
  17   8    -0.01  -0.03  -0.02    -0.03  -0.04   0.03     0.00   0.04   0.03
  18   1     0.06   0.04   0.11    -0.08   0.13   0.13    -0.03  -0.02  -0.06
  19   1     0.08   0.09   0.11     0.02  -0.02  -0.01    -0.30  -0.35  -0.30
  20   8    -0.01  -0.00  -0.03     0.07  -0.07  -0.00     0.10  -0.10   0.07
  21   1     0.03  -0.17   0.03    -0.01  -0.03   0.03    -0.11   0.58  -0.11
  22   1     0.00   0.01  -0.03    -0.00  -0.42   0.45    -0.00  -0.03  -0.04
  23   8    -0.00  -0.02   0.01     0.12   0.07  -0.15     0.00   0.04   0.02
  24   1     0.03   0.01   0.02    -0.59   0.19  -0.12     0.01  -0.07  -0.05
                     22                     23                     24
                        a                      a                      a 
 Frequencies --   463.7718               451.1317               426.1570
 Red. masses --    99.0000                99.0000                99.0000
 Frc consts  --    99.0000                99.0000                99.0000
 IR Inten    --    99.0000                99.0000                99.0000
 Raman Activ --     0.0000                 0.0000                 0.0000
 Depolar     --     0.0000                 0.0000                 0.0000
 Atom AN      X      Y      Z        X      Y      Z        X      Y      Z
   1   1    -0.16   0.04   0.01    -0.40   0.21   0.02    -0.12   0.06   0.01
   2   8     0.02   0.01  -0.05     0.04   0.04  -0.06     0.02   0.05   0.01
   3   1     0.08  -0.08   0.17     0.19  -0.21   0.44     0.06  -0.14   0.16
   4   1     0.16  -0.25   0.06     0.01  -0.02  -0.14     0.07  -0.13  -0.06
   5   8    -0.07  -0.01   0.00     0.01  -0.01  -0.04    -0.05  -0.01  -0.03
   6   1     0.16   0.20  -0.05     0.03   0.01   0.10     0.09   0.11   0.01
   7   1    -0.09   0.07  -0.09    -0.01  -0.45  -0.07    -0.03  -0.27  -0.06
   8   8     0.00   0.00   0.05     0.04   0.14   0.01    -0.03  -0.08  -0.06
   9   1     0.10  -0.15  -0.11    -0.19  -0.26  -0.05     0.14   0.78   0.31
  10   1     0.06  -0.29   0.04    -0.00   0.07  -0.04    -0.01  -0.01   0.03
  11   8     0.01   0.03  -0.00     0.01  -0.03   0.02    -0.02  -0.02  -0.01
  12   1    -0.06   0.23  -0.03     0.03   0.09   0.02    -0.02  -0.12  -0.01
  13   1    -0.00  -0.07  -0.41    -0.01   0.01   0.16    -0.01  -0.04  -0.03
  14   8     0.03   0.02   0.07    -0.02  -0.00  -0.01     0.02   0.00   0.01
  15   1    -0.31   0.13   0.09     0.12  -0.05  -0.03    -0.00   0.02   0.01
  16   1     0.11   0.17  -0.21     0.01  -0.08   0.05     0.04  -0.01  -0.02
  17   8    -0.04  -0.02  -0.02     0.01   0.02   0.00    -0.01   0.01   0.00
  18   1     0.17   0.07   0.25    -0.06  -0.00  -0.07     0.02   0.00   0.02
  19   1     0.11   0.06  -0.10    -0.01  -0.05  -0.13    -0.04  -0.00   0.15
  20   8    -0.02  -0.05   0.04     0.03  -0.03   0.01     0.02  -0.00  -0.04
  21   1     0.04   0.00  -0.03    -0.09   0.10   0.04     0.03  -0.08   0.00
  22   1    -0.01  -0.10  -0.11    -0.00  -0.05   0.06    -0.01  -0.03  -0.04
  23   8    -0.02   0.03   0.06    -0.00   0.00  -0.05    -0.01   0.03   0.00
  24   1     0.02  -0.08  -0.04    -0.07   0.12   0.05     0.01  -0.04  -0.03
                     25                     26                     27
                        a                      a                      a 
 Frequencies --   231.8728               563.8189               521.4866
 Red. masses --    99.0000                99.0000                99.0000
 Frc consts  --    99.0000                99.0000                99.0000
 IR Inten    --    99.0000                99.0000                99.0000
 Raman Activ --     0.0000                 0.0000                 0.0000
 Depolar     --     0.0000                 0.0000                 0.0000
 Atom AN      X      Y      Z        X      Y      Z        X      Y      Z
   1   1    -0.00  -0.09   0.20    -0.07   0.04   0.00    -0.03   0.07  -0.01
   2   8     0.05   0.15   0.66     0.01  -0.00  -0.01    -0.03  -0.04  -0.01
   3   1     0.02   0.14   0.15     0.04  -0.04   0.09     0.01   0.08   0.01
   4   1    -0.01  -0.08  -0.08    -0.02   0.05   0.01     0.06  -0.08   0.15
   5   8    -0.03  -0.32  -0.29     0.06  -0.01  -0.03    -0.04   0.02  -0.08
   6   1    -0.02  -0.09  -0.07    -0.05  -0.05  -0.10     0.05   0.07   0.00
   7   1     0.02   0.03   0.01    -0.06   0.01  -0.06     0.15   0.00   0.16
   8   8     0.04   0.01  -0.01     0.01   0.01   0.03     0.00   0.01  -0.04
   9   1     0.01  -0.02  -0.01     0.04  -0.10  -0.06    -0.18  -0.03   0.06
  10   1    -0.01   0.02  -0.02     0.01   0.27  -0.29    -0.13   0.28   0.36
  11   8    -0.03   0.02   0.00    -0.08   0.09  -0.02     0.13   0.03   0.02
  12   1     0.01  -0.00   0.01     0.33  -0.36   0.17    -0.25  -0.31  -0.16
  13   1     0.00   0.06  -0.10     0.14   0.29  -0.25     0.12   0.28   0.12
  14   8    -0.02   0.15  -0.41    -0.01  -0.14   0.12     0.02  -0.04   0.02
  15   1    -0.02   0.00  -0.11    -0.25   0.16   0.12    -0.07  -0.24  -0.08
  16   1     0.03  -0.01  -0.00    -0.00   0.06  -0.05     0.11   0.15  -0.22
  17   8    -0.01   0.01   0.04     0.01  -0.02  -0.02    -0.05  -0.05  -0.05
  18   1    -0.01   0.02   0.02     0.02   0.03   0.06     0.14   0.08   0.24
  19   1    -0.00  -0.01   0.00    -0.25  -0.15   0.27    -0.04  -0.07  -0.13
  20   8     0.01  -0.01   0.01     0.06   0.05  -0.09     0.02  -0.01  -0.00
  21   1    -0.00   0.00   0.01    -0.06  -0.05   0.07    -0.11   0.14   0.04
  22   1    -0.01  -0.03  -0.01     0.00   0.02   0.01    -0.01  -0.02  -0.09
  23   8    -0.01   0.01   0.01    -0.00  -0.02   0.00    -0.03  -0.01   0.03
  24   1    -0.02  -0.01  -0.01     0.01   0.03   0.03     0.05  -0.03   0.00
                     28                     29                     30
                        a                      a                      a 
 Frequencies --   516.2220               390.1158               548.9306
 Red. masses --    99.0000                99.0000                99.0000
 Frc consts  --    99.0000                99.0000                99.0000
 IR Inten    --    99.0000                99.0000                99.0000
 Raman Activ --     0.0000                 0.0000                 0.0000
 Depolar     --     0.0000                 0.0000                 0.0000
 Atom AN      X      Y      Z        X      Y      Z        X      Y      Z
   1   1     0.09   0.03  -0.01     0.10   0.07   0.01     0.11  -0.09   0.01
   2   8     0.02  -0.00   0.07     0.05   0.10   0.16    -0.00   0.10   0.02
   3   1    -0.04   0.02  -0.09    -0.03  -0.33   0.04    -0.05  -0.20  -0.03
   4   1    -0.10   0.20   0.19    -0.05   0.07  -0.18    -0.15   0.26  -0.01
   5   8     0.08  -0.01  -0.05    -0.09   0.13  -0.59     0.13  -0.02   0.04
   6   1    -0.14  -0.18  -0.07    -0.05   0.01  -0.16    -0.17  -0.22  -0.12
   7   1    -0.16  -0.27  -0.20     0.03   0.21   0.07    -0.09  -0.28  -0.13
   8   8    -0.02   0.01   0.04    -0.02  -0.05   0.01    -0.01   0.05   0.01
   9   1     0.14   0.10  -0.01     0.01  -0.02  -0.01     0.02  -0.00  -0.01
  10   1     0.01  -0.14   0.08    -0.01   0.03   0.04    -0.05  -0.01   0.22
  11   8     0.02   0.03   0.01     0.02  -0.00   0.00     0.05   0.02  -0.00
  12   1    -0.08   0.08  -0.04    -0.03  -0.02  -0.02    -0.18  -0.02  -0.11
  13   1     0.01   0.01  -0.09    -0.07  -0.24   0.11     0.03   0.04  -0.21
  14   8    -0.00   0.02   0.01     0.03  -0.15   0.43     0.01  -0.03   0.04
  15   1    -0.08   0.00   0.01     0.10   0.04   0.12    -0.17   0.07   0.05
  16   1     0.04   0.11  -0.11    -0.03   0.08  -0.03    -0.22   0.10   0.10
  17   8    -0.05   0.00  -0.02    -0.00   0.01  -0.02     0.10  -0.07  -0.02
  18   1     0.17  -0.02   0.12     0.08  -0.03   0.03    -0.25   0.13  -0.06
  19   1    -0.05  -0.08  -0.12    -0.00  -0.01  -0.02    -0.02  -0.05  -0.12
  20   8     0.01  -0.03   0.03     0.01  -0.00   0.00     0.00  -0.02   0.03
  21   1    -0.02   0.18  -0.05    -0.02   0.01   0.02    -0.01   0.15  -0.04
  22   1     0.02   0.30   0.22     0.00  -0.02   0.07    -0.01  -0.23  -0.12
  23   8    -0.02  -0.21  -0.13     0.01  -0.00  -0.02     0.03   0.14   0.10
  24   1     0.04   0.39   0.33    -0.05   0.03  -0.00    -0.05  -0.28  -0.24
                     31                     32                     33
                        a                      a                      a 
 Frequencies --   361.5697               370.1549               405.4684
 Red. masses --    99.0000                99.0000                99.0000
 Frc consts  --    99.0000                99.0000                99.0000
 IR Inten    --    99.0000                99.0000                99.0000
 Raman Activ --     0.0000                 0.0000                 0.0000
 Depolar     --     0.0000                 0.0000                 0.0000
 Atom AN      X      Y      Z        X      Y      Z        X      Y      Z
   1   1     0.00   0.02  -0.00    -0.20  -0.27   0.09     0.01   0.01   0.01
   2   8     0.00   0.01   0.01    -0.06  -0.12  -0.03     0.01   0.02   0.05
   3   1    -0.00  -0.03   0.01     0.09   0.70   0.00    -0.00   0.01   0.00
   4   1     0.02  -0.03   0.03    -0.01   0.02  -0.18     0.02  -0.02   0.01
   5   8    -0.04  -0.00   0.04     0.00   0.12  -0.22    -0.02   0.06  -0.20
   6   1     0.01   0.03  -0.00     0.01   0.04  -0.06     0.02   0.05  -0.08
   7   1     0.01  -0.02   0.01    -0.08  -0.24  -0.12     0.01  -0.02   0.01
   8   8    -0.00   0.01  -0.00     0.04   0.06   0.01     0.00  -0.00  -0.02
   9   1    -0.01   0.02   0.01     0.03  -0.02  -0.03    -0.02   0.02   0.01
  10   1     0.01  -0.06  -0.00    -0.01   0.04   0.01     0.08  -0.34   0.01
  11   8     0.01   0.02  -0.00    -0.01   0.01   0.00     0.04   0.12  -0.01
  12   1     0.00   0.05   0.00    -0.01  -0.03  -0.00    -0.01   0.16  -0.01
  13   1     0.08   0.20   0.04    -0.04  -0.13   0.05     0.23   0.59   0.16
  14   8    -0.01  -0.05  -0.08     0.02  -0.11   0.23    -0.10  -0.18   0.15
  15   1    -0.03  -0.03  -0.02     0.06   0.05   0.08    -0.16  -0.16   0.00
  16   1    -0.44   0.28   0.12    -0.08   0.08  -0.00     0.08  -0.20   0.09
  17   8    -0.11   0.03   0.01     0.00  -0.01  -0.02     0.05  -0.02  -0.00
  18   1     0.50  -0.47  -0.17     0.06  -0.04   0.00    -0.17   0.03  -0.12
  19   1     0.02   0.00  -0.02    -0.01   0.00   0.03     0.09   0.10   0.10
  20   8     0.02  -0.02   0.01    -0.02   0.00   0.03    -0.06  -0.05   0.06
  21   1    -0.03  -0.01   0.03     0.11   0.05  -0.11     0.24  -0.06  -0.18
  22   1     0.03  -0.07   0.20     0.01  -0.00  -0.07    -0.00   0.01   0.01
  23   8     0.13   0.06  -0.00     0.02   0.01   0.08    -0.01   0.00  -0.03
  24   1    -0.17  -0.08  -0.15     0.04  -0.09  -0.04    -0.01   0.03   0.01
                     34                     35                     36
                        a                      a                      a 
 Frequencies --   617.3903               817.9621               758.9203
 Red. masses --    99.0000                99.0000                99.0000
 Frc consts  --    99.0000                99.0000                99.0000
 IR Inten    --    99.0000                99.0000                99.0000
 Raman Activ --     0.0000                 0.0000                 0.0000
 Depolar     --     0.0000                 0.0000                 0.0000
 Atom AN      X      Y      Z        X      Y      Z        X      Y      Z
   1   1     0.12  -0.44   0.09     0.01  -0.03   0.01     0.08  -0.18   0.04
   2   8     0.02   0.13  -0.02     0.00   0.01   0.01     0.01   0.05   0.00
   3   1    -0.08  -0.20  -0.11    -0.01   0.01  -0.02    -0.05  -0.09  -0.08
   4   1    -0.02  -0.07  -0.68    -0.01   0.02  -0.05     0.05  -0.07   0.01
   5   8    -0.02   0.01   0.22     0.01   0.02  -0.05    -0.05   0.04  -0.07
   6   1     0.07   0.09   0.06     0.01  -0.01   0.18     0.08   0.07   0.24
   7   1     0.02  -0.08   0.00    -0.00  -0.00  -0.00    -0.03  -0.13  -0.05
   8   8     0.02   0.02  -0.01     0.00   0.01  -0.00     0.02   0.05   0.03
   9   1    -0.06  -0.04   0.01    -0.00  -0.03  -0.01    -0.04  -0.16  -0.06
  10   1    -0.03   0.09   0.07    -0.08   0.25   0.07     0.10  -0.53   0.11
  11   8     0.02  -0.02   0.01     0.06  -0.15  -0.08     0.00   0.24  -0.02
  12   1    -0.07  -0.00  -0.04    -0.17   0.55  -0.09     0.02  -0.37  -0.01
  13   1     0.07   0.17  -0.04    -0.00  -0.03  -0.11    -0.08  -0.16   0.05
  14   8    -0.03  -0.07  -0.04     0.04   0.04   0.08     0.01   0.11   0.00
  15   1    -0.00   0.14   0.05    -0.18  -0.29  -0.09    -0.01  -0.21  -0.09
  16   1     0.08   0.01  -0.07    -0.01   0.00   0.01     0.02  -0.04   0.01
  17   8    -0.05   0.02  -0.02     0.00   0.00   0.00    -0.01   0.03   0.01
  18   1     0.10  -0.02   0.07     0.00  -0.01  -0.01     0.02  -0.03  -0.03
  19   1     0.04   0.02  -0.06    -0.33  -0.17   0.44    -0.28  -0.19   0.23
  20   8    -0.01  -0.01   0.00     0.08   0.02  -0.06     0.08  -0.01  -0.07
  21   1    -0.01   0.02  -0.01    -0.01  -0.13   0.06    -0.10   0.03   0.07
  22   1     0.00   0.12   0.05     0.00   0.01   0.00    -0.00  -0.02  -0.01
  23   8    -0.02  -0.04  -0.03     0.00   0.00  -0.01     0.01   0.01   0.01
  24   1     0.06   0.09   0.10     0.01   0.01   0.01    -0.01  -0.03  -0.03
                     37                     38                     39
                        a                      a                      a 
 Frequencies --   501.7394               837.6333               695.9528
 Red. masses --    99.0000                99.0000                99.0000
 Frc consts  --    99.0000                99.0000                99.0000
 IR Inten    --    99.0000                99.0000                99.0000
 Raman Activ --     0.0000                 0.0000                 0.0000
 Depolar     --     0.0000                 0.0000                 0.0000
 Atom AN      X      Y      Z        X      Y      Z        X      Y      Z
   1   1     0.02   0.00  -0.00     0.01  -0.21   0.05    -0.20  -0.63   0.17
   2   8    -0.00  -0.02   0.03     0.01   0.04  -0.02    -0.03   0.12  -0.14
   3   1    -0.02   0.06  -0.04    -0.01  -0.06  -0.01     0.09  -0.16   0.23
   4   1     0.12  -0.19   0.11    -0.04   0.08   0.06     0.03  -0.00   0.36
   5   8    -0.08   0.01  -0.04     0.02   0.02  -0.17     0.00   0.03   0.03
   6   1     0.10   0.16  -0.13     0.03  -0.05   0.52    -0.02   0.04  -0.32
   7   1     0.06  -0.06   0.05     0.01  -0.01   0.00     0.08   0.13   0.09
   8   8     0.01   0.03  -0.02     0.01  -0.01  -0.01     0.02  -0.03  -0.02
   9   1    -0.11  -0.07   0.01    -0.01   0.07   0.04    -0.08   0.03   0.05
  10   1    -0.08   0.15   0.23    -0.00   0.16  -0.18     0.01   0.01  -0.03
  11   8     0.06   0.01  -0.00    -0.05  -0.03   0.02    -0.00  -0.01   0.00
  12   1    -0.17  -0.17  -0.11     0.19  -0.09   0.11     0.02   0.05   0.01
  13   1    -0.01  -0.13  -0.34    -0.01  -0.05  -0.20    -0.02  -0.04   0.09
  14   8     0.08  -0.03   0.06     0.03   0.07   0.14     0.02   0.03  -0.03
  15   1    -0.22   0.14   0.09    -0.28  -0.39  -0.11     0.04  -0.06  -0.03
  16   1    -0.03  -0.32   0.29    -0.04   0.01   0.03    -0.16   0.13   0.03
  17   8     0.04   0.13   0.08     0.01   0.00   0.01     0.06  -0.05  -0.02
  18   1    -0.11  -0.17  -0.36    -0.02  -0.01  -0.03    -0.12   0.09   0.02
  19   1     0.04   0.03  -0.04     0.27   0.16  -0.28    -0.03  -0.01   0.04
  20   8    -0.00   0.00  -0.02    -0.07  -0.01   0.04     0.01  -0.01  -0.00
  21   1    -0.03  -0.03   0.03     0.05   0.02  -0.05    -0.00  -0.01   0.00
  22   1     0.01   0.11   0.12     0.00   0.02   0.03     0.01   0.10   0.11
  23   8     0.01  -0.05  -0.09     0.01  -0.01  -0.00    -0.00  -0.03  -0.04
  24   1    -0.03   0.15   0.10    -0.01   0.01   0.00     0.01   0.07   0.05
                     40                     41                     42
                        a                      a                      a 
 Frequencies --   599.7238               914.3674               664.9230
 Red. masses --    99.0000                99.0000                99.0000
 Frc consts  --    99.0000                99.0000                99.0000
 IR Inten    --    99.0000                99.0000                99.0000
 Raman Activ --     0.0000                 0.0000                 0.0000
 Depolar     --     0.0000                 0.0000                 0.0000
 Atom AN      X      Y      Z        X      Y      Z        X      Y      Z
   1   1     0.26  -0.13   0.00    -0.04   0.15  -0.03    -0.14  -0.17   0.06
   2   8    -0.00   0.10   0.08    -0.00  -0.02   0.00    -0.03   0.03  -0.09
   3   1    -0.13  -0.15  -0.21     0.02   0.06   0.03     0.07  -0.04   0.16
   4   1     0.11  -0.16   0.27    -0.05   0.04  -0.34    -0.14   0.27   0.08
   5   8    -0.11   0.05  -0.03     0.04   0.00   0.23     0.13   0.00   0.00
   6   1     0.06   0.15  -0.25    -0.06   0.01  -0.56    -0.17  -0.23  -0.01
   7   1    -0.17  -0.40  -0.23    -0.00   0.06   0.01     0.05   0.10   0.07
   8   8     0.01   0.09   0.06    -0.00  -0.01  -0.00    -0.00  -0.02  -0.02
   9   1     0.07  -0.13  -0.09     0.02   0.02   0.00    -0.04   0.04   0.03
  10   1    -0.02   0.24  -0.15     0.02  -0.05  -0.04     0.00  -0.06   0.06
  11   8    -0.03  -0.08   0.00    -0.02   0.02  -0.01     0.01   0.00   0.00
  12   1     0.11   0.06   0.06     0.09  -0.09   0.05    -0.05   0.00  -0.03
  13   1    -0.00  -0.00   0.16    -0.06  -0.15  -0.04     0.00  -0.00  -0.08
  14   8     0.02  -0.01   0.01     0.05   0.12   0.07     0.00  -0.01   0.02
  15   1     0.09  -0.11  -0.05    -0.21  -0.55  -0.20    -0.00   0.05   0.02
  16   1     0.20  -0.12  -0.07     0.01  -0.03   0.01     0.46  -0.37  -0.08
  17   8    -0.07   0.05   0.02    -0.02   0.02   0.00    -0.16   0.14   0.05
  18   1     0.13  -0.07   0.02     0.03  -0.04  -0.02     0.35  -0.29  -0.08
  19   1     0.09   0.07  -0.01     0.03   0.01  -0.05    -0.01  -0.00   0.01
  20   8    -0.01   0.01  -0.01    -0.00  -0.01   0.01     0.00   0.00   0.01
  21   1    -0.00  -0.10   0.04    -0.00   0.03  -0.01     0.00   0.01  -0.00
  22   1    -0.01  -0.09  -0.12     0.00   0.01   0.01    -0.02  -0.09  -0.13
  23   8    -0.02   0.06   0.04     0.00   0.00  -0.01    -0.05   0.07   0.03
  24   1     0.02  -0.11  -0.08     0.00   0.01   0.01     0.02  -0.11  -0.09
                     43                     44                     45
                        a                      a                      a 
 Frequencies --  1564.6626              1603.8574              1589.3969
 Red. masses --    99.0000                99.0000                99.0000
 Frc consts  --    99.0000                99.0000                99.0000
 IR Inten    --    99.0000                99.0000                99.0000
 Raman Activ --     0.0000                 0.0000                 0.0000
 Depolar     --     0.0000                 0.0000                 0.0000
 Atom AN      X      Y      Z        X      Y      Z        X      Y      Z
   1   1     0.25  -0.03  -0.04    -0.24   0.02   0.04     0.03   0.02  -0.01
   2   8    -0.09  -0.01  -0.04     0.08   0.01   0.04    -0.00  -0.01   0.00
   3   1     0.10   0.05   0.21    -0.10  -0.03  -0.19     0.01   0.01   0.01
   4   1     0.02  -0.04  -0.02    -0.02   0.02   0.00    -0.02   0.03   0.01
   5   8    -0.00   0.02  -0.00     0.01  -0.01  -0.01    -0.01  -0.02  -0.00
   6   1    -0.03  -0.03   0.01     0.00   0.00   0.01     0.04   0.04  -0.00
   7   1     0.31  -0.20   0.32     0.08  -0.04   0.08    -0.25   0.15  -0.27
   8   8    -0.17   0.05  -0.03    -0.05   0.01  -0.00     0.15  -0.04   0.02
   9   1     0.42  -0.02  -0.21     0.12  -0.01  -0.06    -0.36   0.02   0.18
  10   1    -0.04  -0.01   0.14    -0.09   0.02   0.31    -0.11  -0.02   0.41
  11   8    -0.02  -0.00  -0.05    -0.05  -0.02  -0.12    -0.06  -0.02  -0.14
  12   1     0.13   0.02   0.07     0.27   0.07   0.15     0.34   0.07   0.19
  13   1    -0.01  -0.02   0.07    -0.04  -0.07   0.26     0.01   0.01  -0.03
  14   8     0.02   0.00  -0.02     0.09  -0.01  -0.08    -0.01  -0.00   0.01
  15   1    -0.08   0.02   0.02    -0.30   0.10   0.07     0.06   0.01  -0.01
  16   1    -0.01  -0.02   0.03     0.09   0.13  -0.16     0.02   0.03  -0.04
  17   8    -0.00   0.00  -0.01    -0.00  -0.01   0.08     0.00  -0.00   0.02
  18   1     0.01   0.01   0.03    -0.09  -0.07  -0.18    -0.02  -0.02  -0.04
  19   1    -0.14  -0.15  -0.22     0.18   0.20   0.26    -0.14  -0.16  -0.23
  20   8     0.00   0.10   0.05    -0.00  -0.12  -0.07     0.00   0.10   0.06
  21   1     0.13  -0.25  -0.01    -0.15   0.30   0.01     0.13  -0.25  -0.01
  22   1    -0.01  -0.15   0.20    -0.01  -0.10   0.11    -0.01  -0.13   0.15
  23   8    -0.06   0.05  -0.06    -0.04   0.03  -0.03    -0.05   0.04  -0.05
  24   1     0.24  -0.05   0.05     0.16  -0.04   0.03     0.20  -0.04   0.04
                     46                     47                     48
                        a                      a                      a 
 Frequencies --  1605.2179              1574.5891              1596.0578
 Red. masses --    99.0000                99.0000                99.0000
 Frc consts  --    99.0000                99.0000                99.0000
 IR Inten    --    99.0000                99.0000                99.0000
 Raman Activ --     0.0000                 0.0000                 0.0000
 Depolar     --     0.0000                 0.0000                 0.0000
 Atom AN      X      Y      Z        X      Y      Z        X      Y      Z
   1   1    -0.40   0.03   0.07     0.32  -0.00  -0.07    -0.15   0.00   0.03
   2   8     0.14   0.01   0.06    -0.10  -0.02  -0.04     0.05   0.01   0.02
   3   1    -0.16  -0.06  -0.32     0.13   0.08   0.24    -0.06  -0.02  -0.12
   4   1     0.02  -0.03   0.01    -0.02   0.02  -0.00     0.04  -0.06   0.02
   5   8     0.01   0.02  -0.00    -0.01  -0.01  -0.01    -0.01   0.03   0.00
   6   1    -0.04  -0.04  -0.01     0.03   0.03   0.02    -0.03  -0.03  -0.03
   7   1     0.01   0.01   0.01    -0.12   0.06  -0.13     0.10  -0.05   0.10
   8   8    -0.00  -0.00  -0.00     0.06  -0.02   0.01    -0.06   0.02  -0.01
   9   1    -0.01   0.01   0.01    -0.15   0.00   0.07     0.14  -0.01  -0.07
  10   1     0.09  -0.00  -0.32     0.06   0.01  -0.22    -0.03  -0.02   0.12
  11   8     0.05   0.02   0.12     0.03   0.01   0.08    -0.02  -0.00  -0.04
  12   1    -0.27  -0.07  -0.16    -0.18  -0.04  -0.11     0.11   0.02   0.06
  13   1    -0.01  -0.01   0.04     0.00   0.00  -0.01     0.08   0.15  -0.51
  14   8     0.02   0.00  -0.01    -0.00  -0.00   0.01    -0.17   0.01   0.15
  15   1    -0.07   0.00   0.01    -0.00  -0.01  -0.00     0.62  -0.17  -0.13
  16   1     0.09   0.15  -0.18    -0.01  -0.02   0.02     0.01   0.06  -0.06
  17   8     0.00  -0.01   0.09     0.00   0.00  -0.01     0.01  -0.01   0.03
  18   1    -0.10  -0.08  -0.20     0.01   0.01   0.02    -0.04  -0.02  -0.07
  19   1    -0.13  -0.15  -0.20     0.12   0.14   0.20     0.07   0.08   0.11
  20   8     0.00   0.09   0.05     0.00  -0.09  -0.05     0.00  -0.05  -0.03
  21   1     0.12  -0.22  -0.01    -0.12   0.23   0.01    -0.06   0.12   0.01
  22   1    -0.01  -0.17   0.20    -0.02  -0.29   0.36    -0.01  -0.08   0.10
  23   8    -0.06   0.05  -0.06    -0.11   0.10  -0.12    -0.03   0.02  -0.03
  24   1     0.26  -0.06   0.05     0.45  -0.10   0.10     0.13  -0.03   0.03
                     49                     50                     51
                        a                      a                      a 
 Frequencies --  1619.2370              1547.5682              3532.8308
 Red. masses --    99.0000                99.0000                99.0000
 Frc consts  --    99.0000                99.0000                99.0000
 IR Inten    --    99.0000                99.0000                99.0000
 Raman Activ --     0.0000                 0.0000                 0.0000
 Depolar     --     0.0000                 0.0000                 0.0000
 Atom AN      X      Y      Z        X      Y      Z        X      Y      Z
   1   1    -0.30   0.02   0.05    -0.01   0.02  -0.01     0.00  -0.00  -0.00
   2   8     0.10   0.01   0.05     0.00  -0.00   0.01    -0.00   0.00   0.00
   3   1    -0.12  -0.05  -0.25    -0.00   0.00  -0.01     0.00  -0.00  -0.00
   4   1    -0.04   0.06   0.02    -0.36   0.53   0.06     0.00  -0.00  -0.00
   5   8     0.01  -0.02  -0.01    -0.03  -0.27  -0.00    -0.00   0.00  -0.00
   6   1     0.03   0.03  -0.00     0.45   0.53  -0.04     0.00  -0.00   0.00
   7   1     0.01  -0.00   0.01     0.05  -0.03   0.05    -0.00  -0.00   0.00
   8   8    -0.01   0.00   0.00    -0.03   0.01  -0.00    -0.00   0.01  -0.01
   9   1     0.01  -0.00  -0.01     0.07  -0.01  -0.04     0.02  -0.03   0.05
  10   1    -0.01   0.00   0.03     0.01  -0.01  -0.03    -0.01  -0.00  -0.00
  11   8    -0.01  -0.00  -0.01     0.01   0.00   0.01     0.00   0.00   0.00
  12   1     0.03   0.01   0.02    -0.03  -0.01  -0.02     0.00   0.00  -0.00
  13   1    -0.01  -0.01   0.03     0.01   0.02  -0.04    -0.00   0.00  -0.00
  14   8     0.01  -0.00  -0.01    -0.02  -0.00   0.00     0.00  -0.00  -0.00
  15   1    -0.04   0.01   0.00     0.06   0.00   0.00    -0.00  -0.00   0.00
  16   1    -0.21  -0.37   0.42     0.03   0.03  -0.05     0.00   0.00   0.00
  17   8    -0.01   0.04  -0.22    -0.00  -0.00   0.02    -0.00  -0.00  -0.00
  18   1     0.24   0.18   0.48    -0.02  -0.02  -0.05     0.00   0.00  -0.00
  19   1     0.01   0.01   0.01    -0.02  -0.02  -0.01     0.05  -0.03   0.03
  20   8    -0.00  -0.01  -0.00     0.00   0.01   0.00     0.14   0.07   0.17
  21   1    -0.01   0.02   0.00     0.01  -0.02   0.00    -0.61  -0.26  -0.71
  22   1    -0.01  -0.12   0.13     0.00   0.00  -0.01    -0.01   0.00   0.00
  23   8    -0.04   0.05  -0.04     0.00  -0.00   0.00     0.00  -0.00   0.00
  24   1     0.16  -0.05   0.02    -0.01   0.00  -0.00     0.00   0.00  -0.00
                     52                     53                     54
                        a                      a                      a 
 Frequencies --  3274.0859              3234.0911              3332.3847
 Red. masses --    99.0000                99.0000                99.0000
 Frc consts  --    99.0000                99.0000                99.0000
 IR Inten    --    99.0000                99.0000                99.0000
 Raman Activ --     0.0000                 0.0000                 0.0000
 Depolar     --     0.0000                 0.0000                 0.0000
 Atom AN      X      Y      Z        X      Y      Z        X      Y      Z
   1   1    -0.00  -0.00  -0.01    -0.00   0.00   0.00    -0.00  -0.00  -0.01
   2   8     0.00   0.00   0.00     0.00  -0.00  -0.00     0.00   0.00   0.00
   3   1    -0.00  -0.00  -0.00    -0.00   0.00   0.00    -0.00   0.00   0.00
   4   1     0.01   0.01  -0.00     0.01   0.01  -0.00     0.04   0.03  -0.00
   5   8    -0.00  -0.00   0.00    -0.00  -0.00   0.00    -0.01  -0.01   0.00
   6   1     0.01  -0.01  -0.00    -0.01   0.01   0.00    -0.00  -0.00  -0.00
   7   1     0.01  -0.00  -0.00    -0.00   0.00   0.00     0.01  -0.00  -0.00
   8   8     0.00  -0.00   0.01    -0.00   0.00  -0.01     0.00  -0.00   0.01
   9   1    -0.01   0.01  -0.01     0.01  -0.01   0.02    -0.01   0.01  -0.02
  10   1    -0.58  -0.13  -0.17    -0.26  -0.05  -0.07    -0.64  -0.14  -0.14
  11   8     0.23   0.04  -0.11     0.05   0.02   0.04     0.08   0.03   0.17
  12   1    -0.35  -0.03   0.63     0.07  -0.00  -0.09     0.34   0.04  -0.54
  13   1    -0.03   0.01   0.00    -0.02   0.01   0.00    -0.04   0.01  -0.00
  14   8     0.01  -0.01   0.02     0.00  -0.01   0.02     0.01  -0.01   0.01
  15   1    -0.01   0.04  -0.09    -0.01   0.04  -0.09    -0.00   0.03  -0.06
  16   1     0.02   0.02   0.02     0.01   0.01   0.01     0.06   0.05   0.07
  17   8    -0.01  -0.00  -0.00    -0.00  -0.00  -0.00    -0.02  -0.02  -0.01
  18   1     0.00   0.00  -0.00     0.00   0.00  -0.00     0.01   0.02  -0.02
  19   1     0.07  -0.08   0.02    -0.57   0.70  -0.17     0.18  -0.22   0.05
  20   8    -0.02   0.02  -0.01     0.15  -0.16   0.05    -0.04   0.05  -0.01
  21   1     0.00   0.00   0.00    -0.00  -0.04  -0.02     0.01   0.01   0.01
  22   1     0.01  -0.00  -0.00     0.00   0.00  -0.00     0.01  -0.00  -0.00
  23   8    -0.00   0.00   0.00    -0.00  -0.00   0.00    -0.00   0.00   0.00
  24   1    -0.00   0.00  -0.00    -0.00   0.00  -0.00    -0.00  -0.00   0.00
                     55                     56                     57
                        a                      a                      a 
 Frequencies --  3447.3401              3480.3981              3060.9027
 Red. masses --    99.0000                99.0000                99.0000
 Frc consts  --    99.0000                99.0000                99.0000
 IR Inten    --    99.0000                99.0000                99.0000
 Raman Activ --     0.0000                 0.0000                 0.0000
 Depolar     --     0.0000                 0.0000                 0.0000
 Atom AN      X      Y      Z        X      Y      Z        X      Y      Z
   1   1    -0.02   0.02   0.07    -0.01  -0.02  -0.05    -0.00   0.00   0.01
   2   8    -0.21   0.03   0.09     0.02  -0.00  -0.00     0.00  -0.00  -0.00
   3   1     0.85  -0.12  -0.43    -0.09   0.02   0.05    -0.00   0.00  -0.00
   4   1     0.00   0.00   0.00    -0.00  -0.00  -0.00    -0.02   0.01   0.00
   5   8    -0.00   0.00  -0.00     0.00   0.00   0.00    -0.14   0.12   0.01
   6   1     0.00  -0.00  -0.00    -0.00   0.00   0.00     0.56  -0.47  -0.07
   7   1     0.08   0.01  -0.07     0.70   0.08  -0.65     0.00  -0.00  -0.00
   8   8    -0.02  -0.00   0.02    -0.16  -0.03   0.17     0.00   0.00   0.00
   9   1    -0.00  -0.00   0.01    -0.05   0.03  -0.04    -0.00   0.00  -0.00
  10   1    -0.00   0.00  -0.00     0.01   0.00   0.00    -0.09  -0.02  -0.02
  11   8    -0.00  -0.00   0.00    -0.00  -0.00  -0.00     0.02   0.01   0.00
  12   1     0.00   0.00  -0.00     0.00   0.00  -0.00     0.00  -0.00   0.01
  13   1     0.00  -0.00   0.00    -0.00   0.00  -0.00     0.03  -0.01  -0.02
  14   8    -0.00  -0.00   0.00     0.00  -0.00   0.00    -0.03   0.06  -0.14
  15   1    -0.00   0.00  -0.00     0.00   0.00  -0.00     0.06  -0.24   0.58
  16   1     0.01   0.01   0.01    -0.00  -0.00  -0.01    -0.00  -0.01  -0.00
  17   8     0.00   0.00  -0.00     0.00   0.00   0.00     0.00   0.00  -0.00
  18   1    -0.01  -0.01   0.01    -0.00  -0.00   0.00    -0.00  -0.00   0.00
  19   1    -0.00   0.00  -0.00    -0.01   0.01  -0.00    -0.03   0.04  -0.01
  20   8    -0.00  -0.00  -0.00     0.00  -0.00   0.00     0.01  -0.01   0.00
  21   1     0.00   0.00   0.00    -0.01  -0.00  -0.01     0.00  -0.00   0.00
  22   1    -0.01   0.00  -0.00    -0.01   0.00  -0.00     0.00  -0.00   0.00
  23   8     0.01   0.01  -0.01     0.00   0.00  -0.00    -0.00   0.00  -0.00
  24   1    -0.02  -0.04   0.05    -0.00  -0.01   0.01     0.00  -0.00   0.00
                     58                     59                     60
                        a                      a                      a 
 Frequencies --  3099.8684              3558.1322              3517.4696
 Red. masses --    99.0000                99.0000                99.0000
 Frc consts  --    99.0000                99.0000                99.0000
 IR Inten    --    99.0000                99.0000                99.0000
 Raman Activ --     0.0000                 0.0000                 0.0000
 Depolar     --     0.0000                 0.0000                 0.0000
 Atom AN      X      Y      Z        X      Y      Z        X      Y      Z
   1   1     0.04   0.05   0.22    -0.00  -0.00  -0.00    -0.00  -0.00  -0.00
   2   8    -0.01  -0.01  -0.06     0.00   0.00   0.00    -0.00   0.00   0.00
   3   1    -0.01  -0.00  -0.00    -0.00   0.00   0.00     0.01  -0.00  -0.01
   4   1    -0.05  -0.06   0.00     0.00   0.00  -0.00     0.00   0.00  -0.00
   5   8     0.13  -0.08  -0.02    -0.00  -0.00   0.00     0.00  -0.00   0.00
   6   1    -0.47   0.39   0.06     0.00  -0.00  -0.00    -0.00  -0.00  -0.00
   7   1     0.01  -0.00  -0.01     0.00   0.00  -0.00    -0.04  -0.02   0.07
   8   8    -0.00  -0.00   0.00     0.00  -0.00   0.00     0.10  -0.09   0.19
   9   1    -0.01   0.00  -0.00    -0.00   0.00  -0.00    -0.35   0.39  -0.81
  10   1    -0.11  -0.02  -0.03    -0.04  -0.01  -0.01     0.02   0.01   0.01
  11   8     0.03   0.01   0.00     0.01   0.00   0.00    -0.00  -0.00  -0.00
  12   1    -0.00   0.00   0.02     0.00   0.00  -0.00    -0.00   0.00   0.00
  13   1     0.04  -0.01  -0.02     0.89  -0.37   0.06    -0.00   0.00  -0.00
  14   8    -0.03   0.06  -0.15    -0.22   0.09  -0.00     0.00  -0.00   0.00
  15   1     0.07  -0.27   0.64    -0.03   0.03  -0.06    -0.00   0.00  -0.01
  16   1    -0.01  -0.01  -0.01     0.01   0.00   0.01    -0.00  -0.00  -0.00
  17   8     0.00   0.00   0.00    -0.00  -0.00  -0.00     0.00   0.00   0.00
  18   1    -0.00  -0.00   0.00     0.00  -0.00  -0.00    -0.00  -0.00   0.00
  19   1    -0.02   0.03  -0.00     0.00   0.00   0.00    -0.02   0.02  -0.00
  20   8     0.01  -0.01   0.00     0.00   0.00   0.00     0.01  -0.00   0.01
  21   1    -0.00  -0.00  -0.00    -0.00  -0.00  -0.00    -0.04  -0.02  -0.05
  22   1    -0.00  -0.00   0.00    -0.01   0.00  -0.00     0.03  -0.00  -0.00
  23   8     0.00   0.00  -0.00     0.00  -0.00   0.00    -0.01   0.00  -0.00
  24   1     0.00  -0.00   0.00     0.00   0.00  -0.00    -0.01  -0.01   0.01
                     61                     62                     63
                        a                      a                      a 
 Frequencies --  3223.9383              3342.0227              3354.7814
 Red. masses --    99.0000                99.0000                99.0000
 Frc consts  --    99.0000                99.0000                99.0000
 IR Inten    --    99.0000                99.0000                99.0000
 Raman Activ --     0.0000                 0.0000                 0.0000
 Depolar     --     0.0000                 0.0000                 0.0000
 Atom AN      X      Y      Z        X      Y      Z        X      Y      Z
   1   1    -0.16  -0.22  -0.89     0.03   0.03   0.13     0.00   0.01   0.02
   2   8     0.02   0.05   0.22    -0.00  -0.01  -0.03     0.00  -0.00  -0.00
   3   1     0.06  -0.00   0.00    -0.01   0.00   0.00    -0.01   0.00   0.00
   4   1    -0.13  -0.09   0.01    -0.80  -0.51   0.07     0.05   0.03  -0.00
   5   8     0.06   0.00  -0.01     0.18   0.13  -0.01    -0.01  -0.01  -0.00
   6   1    -0.10   0.08   0.02     0.08  -0.03  -0.01    -0.00   0.00   0.00
   7   1    -0.03  -0.00   0.03     0.00   0.00  -0.00     0.00   0.00  -0.01
   8   8     0.01   0.00  -0.01    -0.00  -0.00   0.00    -0.00  -0.00   0.00
   9   1     0.00  -0.00   0.00    -0.00   0.00  -0.00    -0.00   0.00  -0.00
  10   1    -0.02  -0.01  -0.00    -0.03  -0.01  -0.01     0.10   0.02   0.02
  11   8     0.00   0.00   0.00     0.00   0.00   0.01    -0.02  -0.00  -0.02
  12   1    -0.00  -0.00   0.00     0.01   0.00  -0.02    -0.03  -0.00   0.05
  13   1     0.01  -0.00  -0.00    -0.00   0.00   0.00    -0.00   0.00  -0.01
  14   8    -0.01   0.01  -0.03     0.00  -0.01   0.02    -0.00   0.00  -0.01
  15   1     0.02  -0.06   0.15    -0.01   0.04  -0.08     0.01  -0.01   0.03
  16   1     0.02   0.01   0.02     0.03   0.03   0.04     0.48   0.45   0.62
  17   8    -0.00  -0.00  -0.00    -0.01  -0.01  -0.01    -0.15  -0.17  -0.11
  18   1     0.00  -0.00   0.00     0.01   0.01  -0.01     0.13   0.20  -0.17
  19   1    -0.01   0.01  -0.00     0.00  -0.01   0.00    -0.02   0.02  -0.00
  20   8     0.00  -0.00   0.00    -0.00   0.00  -0.00     0.00  -0.00   0.00
  21   1     0.00  -0.00   0.00     0.00   0.00   0.00    -0.00  -0.00  -0.00
  22   1     0.00   0.00  -0.01    -0.00   0.00   0.00     0.03  -0.00   0.00
  23   8    -0.00   0.00   0.00     0.00  -0.00   0.00    -0.01   0.01  -0.00
  24   1    -0.00   0.00  -0.00     0.00   0.00  -0.00    -0.01  -0.02   0.02
                     64                     65                     66
                        a                      a                      a 
 Frequencies --  3452.1282              3420.5182              3549.1478
 Red. masses --    99.0000                99.0000                99.0000
 Frc consts  --    99.0000                99.0000                99.0000
 IR Inten    --    99.0000                99.0000                99.0000
 Raman Activ --     0.0000                 0.0000                 0.0000
 Depolar     --     0.0000                 0.0000                 0.0000
 Atom AN      X      Y      Z        X      Y      Z        X      Y      Z
   1   1    -0.00   0.00   0.01     0.00   0.00   0.01    -0.00  -0.00  -0.00
   2   8    -0.02   0.00   0.01     0.00  -0.00  -0.00    -0.00   0.00   0.00
   3   1     0.06  -0.01  -0.03    -0.02   0.00   0.01     0.00  -0.00  -0.00
   4   1     0.00   0.00  -0.00     0.00  -0.00   0.00     0.00   0.00   0.00
   5   8    -0.00  -0.00   0.00     0.00  -0.00  -0.00    -0.00  -0.00   0.00
   6   1     0.00  -0.00  -0.00    -0.00   0.00   0.00     0.00  -0.00  -0.00
   7   1     0.01   0.00  -0.01    -0.00   0.00   0.00    -0.01  -0.00   0.01
   8   8    -0.00  -0.00   0.01     0.00   0.00  -0.00     0.00  -0.00   0.00
   9   1    -0.00   0.00  -0.01     0.00  -0.00   0.00    -0.01   0.01  -0.03
  10   1     0.00   0.00   0.00     0.00   0.00   0.00    -0.00  -0.00  -0.00
  11   8    -0.00  -0.00  -0.00    -0.00  -0.00   0.00     0.00   0.00   0.00
  12   1     0.00   0.00  -0.00     0.00   0.00  -0.00    -0.00   0.00   0.00
  13   1    -0.00   0.00  -0.00    -0.00   0.00  -0.00    -0.01   0.00  -0.00
  14   8     0.00   0.00  -0.00    -0.00  -0.00   0.00     0.00  -0.00   0.00
  15   1     0.00  -0.00   0.00     0.00   0.00  -0.00    -0.00  -0.00   0.00
  16   1     0.01   0.00   0.01     0.18   0.18   0.19     0.02   0.02   0.03
  17   8    -0.01  -0.01   0.00     0.07   0.12  -0.16    -0.00  -0.00  -0.01
  18   1     0.02   0.03  -0.02    -0.45  -0.67   0.45    -0.00  -0.01   0.00
  19   1     0.00  -0.00   0.00    -0.00   0.00  -0.00    -0.00   0.00  -0.00
  20   8     0.00   0.00  -0.00     0.00  -0.00   0.00    -0.00  -0.00  -0.00
  21   1    -0.00  -0.00   0.00    -0.00  -0.00  -0.00     0.01   0.00   0.01
  22   1     0.15  -0.03   0.02     0.03  -0.00   0.00    -0.96   0.04   0.02
  23   8    -0.11  -0.13   0.17    -0.01  -0.00   0.01     0.22  -0.03   0.02
  24   1     0.29   0.56  -0.72     0.01   0.02  -0.02     0.08   0.09  -0.12
