
                                 *****************
                                 * O   R   C   A *
                                 *****************

                                            #,                                       
                                            ###                                      
                                            ####                                     
                                            #####                                    
                                            ######                                   
                                           ########,                                 
                                     ,,################,,,,,                         
                               ,,#################################,,                 
                          ,,##########################################,,             
                       ,#########################################, ''#####,          
                    ,#############################################,,   '####,        
                  ,##################################################,,,,####,       
                ,###########''''           ''''###############################       
              ,#####''   ,,,,##########,,,,          '''####'''          '####       
            ,##' ,,,,###########################,,,                        '##       
           ' ,,###''''                  '''############,,,                           
         ,,##''                                '''############,,,,        ,,,,,,###''
      ,#''                                            '''#######################'''  
     '                                                          ''''####''''         
             ,#######,   #######,   ,#######,      ##                                
            ,#'     '#,  ##    ##  ,#'     '#,    #''#        ######   ,####,        
            ##       ##  ##   ,#'  ##            #'  '#       #        #'  '#        
            ##       ##  #######   ##           ,######,      #####,   #    #        
            '#,     ,#'  ##    ##  '#,     ,#' ,#      #,         ##   #,  ,#        
             '#######'   ##     ##  '#######'  #'      '#     #####' # '####'        



                  #######################################################
                  #                        -***-                        #
                  #          Department of theory and spectroscopy      #
                  #    Directorship and core code : Frank Neese         #
                  #        Max Planck Institute fuer Kohlenforschung    #
                  #                Kaiser Wilhelm Platz 1               #
                  #                 D-45470 Muelheim/Ruhr               #
                  #                      Germany                        #
                  #                                                     #
                  #                  All rights reserved                #
                  #                        -***-                        #
                  #######################################################


                         Program Version 5.0.2 -  RELEASE  -


 With contributions from (in alphabetic order):
   Daniel Aravena         : Magnetic Suceptibility
   Michael Atanasov       : Ab Initio Ligand Field Theory (pilot matlab implementation)
   Alexander A. Auer      : GIAO ZORA, VPT2 properties, NMR spectrum
   Ute Becker             : Parallelization
   Giovanni Bistoni       : ED, misc. LED, open-shell LED, HFLD
   Martin Brehm           : Molecular dynamics
   Dmytro Bykov           : SCF Hessian
   Vijay G. Chilkuri      : MRCI spin determinant printing, contributions to CSF-ICE
   Dipayan Datta          : RHF DLPNO-CCSD density
   Achintya Kumar Dutta   : EOM-CC, STEOM-CC
   Dmitry Ganyushin       : Spin-Orbit,Spin-Spin,Magnetic field MRCI
   Miquel Garcia          : C-PCM and meta-GGA Hessian, CC/C-PCM, Gaussian charge scheme
   Yang Guo               : DLPNO-NEVPT2, F12-NEVPT2, CIM, IAO-localization
   Andreas Hansen         : Spin unrestricted coupled pair/coupled cluster methods
   Benjamin Helmich-Paris : MC-RPA, TRAH-SCF, COSX integrals
   Lee Huntington         : MR-EOM, pCC
   Robert Izsak           : Overlap fitted RIJCOSX, COSX-SCS-MP3, EOM
   Marcus Kettner         : VPT2
   Christian Kollmar      : KDIIS, OOCD, Brueckner-CCSD(T), CCSD density, CASPT2, CASPT2-K
   Simone Kossmann        : Meta GGA functionals, TD-DFT gradient, OOMP2, MP2 Hessian
   Martin Krupicka        : Initial AUTO-CI
   Lucas Lang             : DCDCAS
   Marvin Lechner         : AUTO-CI (C++ implementation), FIC-MRCC
   Dagmar Lenk            : GEPOL surface, SMD
   Dimitrios Liakos       : Extrapolation schemes; Compound Job, initial MDCI parallelization
   Dimitrios Manganas     : Further ROCIS development; embedding schemes
   Dimitrios Pantazis     : SARC Basis sets
   Anastasios Papadopoulos: AUTO-CI, single reference methods and gradients
   Taras Petrenko         : DFT Hessian,TD-DFT gradient, ASA, ECA, R-Raman, ABS, FL, XAS/XES, NRVS
   Peter Pinski           : DLPNO-MP2, DLPNO-MP2 Gradient
   Christoph Reimann      : Effective Core Potentials
   Marius Retegan         : Local ZFS, SOC
   Christoph Riplinger    : Optimizer, TS searches, QM/MM, DLPNO-CCSD(T), (RO)-DLPNO pert. Triples
   Tobias Risthaus        : Range-separated hybrids, TD-DFT gradient, RPA, STAB
   Michael Roemelt        : Original ROCIS implementation
   Masaaki Saitow         : Open-shell DLPNO-CCSD energy and density
   Barbara Sandhoefer     : DKH picture change effects
   Avijit Sen             : IP-ROCIS
   Kantharuban Sivalingam : CASSCF convergence, NEVPT2, FIC-MRCI
   Bernardo de Souza      : ESD, SOC TD-DFT
   Georgi Stoychev        : AutoAux, RI-MP2 NMR, DLPNO-MP2 response
   Willem Van den Heuvel  : Paramagnetic NMR
   Boris Wezisla          : Elementary symmetry handling
   Frank Wennmohs         : Technical directorship


 We gratefully acknowledge several colleagues who have allowed us to
 interface, adapt or use parts of their codes:
   Stefan Grimme, W. Hujo, H. Kruse, P. Pracht,  : VdW corrections, initial TS optimization,
                  C. Bannwarth, S. Ehlert          DFT functionals, gCP, sTDA/sTD-DF
   Ed Valeev, F. Pavosevic, A. Kumar             : LibInt (2-el integral package), F12 methods
   Garnet Chan, S. Sharma, J. Yang, R. Olivares  : DMRG
   Ulf Ekstrom                                   : XCFun DFT Library
   Mihaly Kallay                                 : mrcc  (arbitrary order and MRCC methods)
   Jiri Pittner, Ondrej Demel                    : Mk-CCSD
   Frank Weinhold                                : gennbo (NPA and NBO analysis)
   Christopher J. Cramer and Donald G. Truhlar   : smd solvation model
   Lars Goerigk                                  : TD-DFT with DH, B97 family of functionals
   V. Asgeirsson, H. Jonsson                     : NEB implementation
   FAccTs GmbH                                   : IRC, NEB, NEB-TS, DLPNO-Multilevel, CI-OPT
                                                   MM, QMMM, 2- and 3-layer-ONIOM, Crystal-QMMM,
                                                   LR-CPCM, SF, NACMEs, symmetry and pop. for TD-DFT,
                                                   nearIR, NL-DFT gradient (VV10), updates on ESD,
                                                   ML-optimized integration grids
   S Lehtola, MJT Oliveira, MAL Marques          : LibXC Library
   Liviu Ungur et al                             : ANISO software


 Your calculation uses the libint2 library for the computation of 2-el integrals
 For citations please refer to: http://libint.valeyev.net

 Your ORCA version has been built with support for libXC version: 5.1.0
 For citations please refer to: https://tddft.org/programs/libxc/

 This ORCA versions uses:
   CBLAS   interface :  Fast vector & matrix operations
   LAPACKE interface :  Fast linear algebra routines
   SCALAPACK package :  Parallel linear algebra routines
   Shared memory     :  Shared parallel matrices
   BLAS/LAPACK       :  OpenBLAS 0.3.15  USE64BITINT DYNAMIC_ARCH NO_AFFINITY Haswell SINGLE_THREADED
        Core in use  :  Haswell
   Copyright (c) 2011-2014, The OpenBLAS Project




***************************************
The coordinates will be read from file: cluster_opt.xyz
***************************************


Preparing ONIOM calculation             ...         done
================================================================================

----- Orbital basis set information -----
Your calculation utilizes the basis: aug-cc-pVTZ 
    H, B-Ne : Obtained from the ccRepo (grant-hill.group.shef.ac.uk/ccrepo) Feb. 2017
              R. A. Kendall, T. H. Dunning, Jr., R. J. Harrison, J. Chem. Phys. 96, 6796 (1992)
         He : Obtained from the ccRepo (grant-hill.group.shef.ac.uk/ccrepo) Feb. 2017
              D. E. Woon, T. H. Dunning, Jr., J. Chem. Phys. 100, 2975 (1994)
  Li-Be, Na : Obtained from the ccRepo (grant-hill.group.shef.ac.uk/ccrepo) Feb. 2017
              B. P. Prascher, D. E. Woon, K. A. Peterson, T. H. Dunning, Jr., A. K. Wilson, Theor. Chem. Acc. 128, 69 (2011)
         Mg : Obtained from the Peterson Research Group Website (tyr0.chem.wsu.edu/~kipeters) Feb. 2017
              B. P. Prascher, D. E. Woon, K. A. Peterson, T. H. Dunning, Jr., A. K. Wilson, Theor. Chem. Acc. 128, 69 (2011)
      Al-Ar : Obtained from the ccRepo (grant-hill.group.shef.ac.uk/ccrepo) Feb. 2017
              D. E. Woon, T. H. Dunning, Jr., J. Chem. Phys. 98, 1358 (1993)
      Sc-Zn : Obtained from the ccRepo (grant-hill.group.shef.ac.uk/ccrepo) Feb. 2017
              N. B. Balabanov, K. A. Peterson, J. Chem. Phys. 123, 064107 (2005)
              N. B. Balabanov, K. A. Peterson, J. Chem. Phys. 125, 074110 (2006)
      Ga-Kr : Obtained from the ccRepo (grant-hill.group.shef.ac.uk/ccrepo) Feb. 2017
              A. K. Wilson, D. E. Woon, K. A. Peterson, T. H. Dunning, Jr., J. Chem. Phys. 110, 7667 (1999)
     Ag, Au : Obtained from the Peterson Research Group Website (tyr0.chem.wsu.edu/~kipeters) Feb. 2017
              K. A. Peterson, C. Puzzarini, Theor. Chem. Acc. 114, 283 (2005)

----- AuxC basis set information -----
Your calculation utilizes the auxiliary basis: aug-cc-pVTZ/C 
  H-He, B-F, Al-Ar, Ga-Kr : Obtained from the EMSL Basis Set Exchange (bse.pnl.gov) Feb. 2017
                            F. Weigend, A. Kohn, C. Hattig, J. Chem. Phys. 116, 3175 (2002)
                   Be, Mg : Obtained from the TURBOMOLE 7.0 basis set library
                            C. Haettig, Phys. Chem. Chem. Phys. 7, 59 (2005)
                       Ne : Obtained from the EMSL Basis Set Exchange (bse.pnl.gov) Feb. 2017
                            C. Haettig, Phys. Chem. Chem. Phys. 7, 59 (2005)
                            F. Weigend, A. Kohn, C. Hattig, J. Chem. Phys. 116, 3175 (2002)
                    Sc-Zn : Obtained from the EMSL Basis Set Exchange (bse.pnl.gov) Feb. 2017
                            J. G. Hill, J. A. Platts, J. Chem. Phys. 128, 044104 (2008)

================================================================================
                                        WARNINGS
                       Please study these warnings very carefully!
================================================================================


WARNING: Post HF methods need fully converged wavefunctions
  ===> : Setting SCFConvForced true
         You can overwrite this default with %scf ConvForced false 


WARNING: MDCI localization with Augmented Hessian Foster-Boys
  ===> : Switching off randomization!

INFO   : the flag for use of the SHARK integral package has been found!

================================================================================
                                       INPUT FILE
================================================================================
NAME = cluster_dlpno_SP.inp
|  1> !QM/XTB2 DLPNO-CCSD(T) aug-cc-pVTZ aug-cc-pVTZ/C TightPNO
|  2> %maxcore 2000
|  3> %pal
|  4> nprocs 28
|  5> end
|  6> %qmmm
|  7> QMAtoms {177 178 179 363 364 365 441 442 443 471 472 473 504 505 506 582 583 584 } end 
|  8> ActiveAtoms {177 178 179 363 364 365 441 442 443 471 472 473 504 505 506 582 583 584 } end 
|  9> end
| 10> *xyzfile 0 1 cluster_opt.xyz 
| 11> 
| 12> 
| 13>                          ****END OF INPUT****
================================================================================

------------------------------------------------------------------------------

                             **************************
                             *    2-layered ONIOM     *
                             **************************


------------------------------------------------------------------------------




Multiscale model                       ... QM1/QM2
QM2 method                             ... XTB2
Coupling Scheme                        ... subtractive
Embedding Scheme                       ... electrostatic
PrintLevel                             ... 1
Method for determining QM2 charges     ... Hirshfeld
Charge of total system                 ... 0
Charge alteration scheme               ... Charge shifting
Scaling factor for CS scheme           ... 0.06
Gradient projection scheme             ... Lever rule
Scaling factor for QM2 charges         ... 1.00
AutoFF method                          ... XTB2
AutoFF boundary                        ... no covalent bonds
Point charges in QM calc. from MM atoms... 582
              from charge shift scheme ... 0
Printing trajectories, xyz and allxyz files:
        QMMMRegion                     ... YES
        activeRegion                   ... YES
        activeRegionExt                ... NO
        qmRegion                       ... YES
        qm2Region                      ... NO
Parameter files:
        ORCA Forcefield Filename       ... cluster_dlpno_SP_L_QM2.ORCAFF.prms.tmp
        QM-LA bond distances Filename  ... cluster_dlpno_SP.H_DIST.prms.tmp
Forcefield type                        ... ORCA
Size of different subsystems (in atoms):
Size of QMMM System                    ... 600
Size of QM2 Subsystem                  ... 582
Size of QM1 Subsystem                  ... 18
Number of link atoms                   ... 0
Size of QM1 Subsystem plus link atoms  ... 18
Size of region for optimizer           ... 32
        optimized atoms = activeRegion ... 18
        fixed atoms (distance cutoff)  ... 14 ( 1.0)
Composition of different systems (atoms start counting at 0):
QM1 Subsystem                          ... 177 178 179 363 364 365 441 442 443 471 
                                           472 473 504 505 506 582 583 584 
Active atoms                           ... 177 178 179 363 364 365 441 442 443 471 
                                           472 473 504 505 506 582 583 584 
Fixed atoms used in optimizer          ...  76  77 117 242 321 322 323 391 392 426 
                                           573 574 575 599 

                       ****************************
                       * Single Point Calculation *
                       ****************************

                    ************************************                      
                    *       QM/   XTB2 SP Energy       *                      
                    ************************************                      


------------------------------------------------------------------------------
                          XTB2 - FULL SYSTEM                         
------------------------------------------------------------------------------
Running XTB calculation
---------------------------------   --------------------
FINAL SINGLE POINT ENERGY (L-QM2)    -1018.342471166890
---------------------------------   --------------------
------------------------------------------------------------------------------
                                  XTB2 - SMALL SYSTEM                         
------------------------------------------------------------------------------
Running XTB calculation
---------------------------------   --------------------
FINAL SINGLE POINT ENERGY (S-QM2)      -30.542526457180
---------------------------------   --------------------
------------------------------------------------------------------------------
                                QM - SMALL SYSTEM                           
------------------------------------------------------------------------------
---------------------------------
CARTESIAN COORDINATES (ANGSTROEM)
---------------------------------
  H     -0.828974    6.356515    4.904263
  O     -1.402256    6.963404    5.443906
  H     -1.408526    7.810919    4.944656
  H     -1.885611    9.009821    3.318149
  O     -1.593358    9.361959    4.190321
  H     -2.429944    9.449903    4.685638
  H     -0.076803    5.820163   10.597946
  O     -0.799597    6.453440   10.546845
  H     -0.695380    6.849429    9.661628
  H     -3.804282    8.828642    6.620885
  O     -3.996532    8.835032    5.677731
  H     -4.098833    7.890171    5.453555
  H      0.620563    7.184166    7.488238
  O     -0.283207    7.271914    7.840438
  H     -0.805645    7.256698    6.996548
  H      0.466772    8.731436    4.158284
  O      1.084561    8.029103    3.931471
  H      1.287802    7.545209    4.756305

----------------------------
CARTESIAN COORDINATES (A.U.)
----------------------------
  NO LB      ZA    FRAG     MASS         X           Y           Z
   0 H     1.0000    0     1.008   -1.566534   12.012073    9.267714
   1 O     8.0000    0    15.999   -2.649881   13.158926   10.287492
   2 H     1.0000    0     1.008   -2.661728   14.760499    9.344045
   3 H     1.0000    0     1.008   -3.563289   17.026094    6.270394
   4 O     8.0000    0    15.999   -3.011010   17.691538    7.918559
   5 H     1.0000    0     1.008   -4.591929   17.857729    8.854572
   6 H     1.0000    0     1.008   -0.145137   10.998514   20.027215
   7 O     8.0000    0    15.999   -1.511020   12.195235   19.930649
   8 H     1.0000    0     1.008   -1.314078   12.943545   18.257830
   9 H     1.0000    0     1.008   -7.189050   16.683715   12.511660
  10 O     8.0000    0    15.999   -7.552350   16.695792   10.729357
  11 H     1.0000    0     1.008   -7.745671   14.910262   10.305725
  12 H     1.0000    0     1.008    1.172694   13.576106   14.150719
  13 O     8.0000    0    15.999   -0.535184   13.741926   14.816281
  14 H     1.0000    0     1.008   -1.522448   13.713171   13.221559
  15 H     1.0000    0     1.008    0.882071   16.500023    7.858017
  16 O     8.0000    0    15.999    2.049522   15.172806    7.429404
  17 H     1.0000    0     1.008    2.433593   14.258379    8.988114

--------------------------------
INTERNAL COORDINATES (ANGSTROEM)
--------------------------------
 H      0   0   0     0.000000000000     0.00000000     0.00000000
 O      1   0   0     0.994072992048     0.00000000     0.00000000
 H      2   1   0     0.983653119267   104.72389427     0.00000000
 H      3   2   1     2.076174034831   153.71756906    66.88699231
 O      4   3   2     0.984934387952    56.25805592   164.45880502
 H      5   4   3     0.976191630384   103.13384000   271.58069807
 H      2   1   3     5.443155826045   104.20361619   219.30782005
 O      7   2   1     0.962331841318    68.19858144   184.58960339
 H      8   7   2     0.975335107674   103.59838442   337.10122405
 H      6   5   4     2.453558764268   149.02962944   119.51472102
 O     10   6   5     0.962569531198    48.49785948   230.95455153
 H     11  10   6     0.976465195816   103.85403991   112.75785697
 H      9   8   7     2.562689358429   151.35775587   351.71265708
 O     13   9   8     0.973932553188    39.51741511   159.79590016
 H     14  13   9     0.992634815531   100.34527783   200.25135954
 H      5   4   3     2.154697040724    99.55029496    69.67135945
 O     16   5   4     0.962485312763   146.17414420   319.42044045
 H     17  16   5     0.977656431709   107.20492002   260.76576844

---------------------------
INTERNAL COORDINATES (A.U.)
---------------------------
 H      0   0   0     0.000000000000     0.00000000     0.00000000
 O      1   0   0     1.878525712098     0.00000000     0.00000000
 H      2   1   0     1.858835006192   104.72389427     0.00000000
 H      3   2   1     3.923400332188   153.71756906    66.88699231
 O      4   3   2     1.861256253110    56.25805592   164.45880502
 H      5   4   3     1.844734835652   103.13384000   271.58069807
 H      2   1   3    10.286073815482   104.20361619   219.30782005
 O      7   2   1     1.818543630042    68.19858144   184.58960339
 H      8   7   2     1.843116242302   103.59838442   337.10122405
 H      6   5   4     4.636554117950   149.02962944   119.51472102
 O     10   6   5     1.818992798821    48.49785948   230.95455153
 H     11  10   6     1.845251799399   103.85403991   112.75785697
 H      9   8   7     4.842781053745   151.35775587   351.71265708
 O     13   9   8     1.840465798435    39.51741511   159.79590016
 H     14  13   9     1.875807952348   100.34527783   200.25135954
 H      5   4   3     4.071787308538    99.55029496    69.67135945
 O     16   5   4     1.818833649044   146.17414420   319.42044045
 H     17  16   5     1.847502908997   107.20492002   260.76576844

---------------------
BASIS SET INFORMATION
---------------------
There are 2 groups of distinct atoms

 Group   1 Type H   : 6s3p2d contracted to 4s3p2d pattern {3111/111/11}
 Group   2 Type O   : 19s6p3d2f contracted to 5s4p3d2f pattern {88111/3111/111/11}

Atom   0H    basis set group =>   1
Atom   1O    basis set group =>   2
Atom   2H    basis set group =>   1
Atom   3H    basis set group =>   1
Atom   4O    basis set group =>   2
Atom   5H    basis set group =>   1
Atom   6H    basis set group =>   1
Atom   7O    basis set group =>   2
Atom   8H    basis set group =>   1
Atom   9H    basis set group =>   1
Atom  10O    basis set group =>   2
Atom  11H    basis set group =>   1
Atom  12H    basis set group =>   1
Atom  13O    basis set group =>   2
Atom  14H    basis set group =>   1
Atom  15H    basis set group =>   1
Atom  16O    basis set group =>   2
Atom  17H    basis set group =>   1
---------------------------------
AUXILIARY/C BASIS SET INFORMATION
---------------------------------
There are 2 groups of distinct atoms

 Group   1 Type H   : 5s4p3d2f contracted to 5s4p3d2f pattern {11111/1111/111/11}
 Group   2 Type O   : 9s7p6d4f2g contracted to 9s7p6d4f2g pattern {111111111/1111111/111111/1111/11}

Atom   0H    basis set group =>   1
Atom   1O    basis set group =>   2
Atom   2H    basis set group =>   1
Atom   3H    basis set group =>   1
Atom   4O    basis set group =>   2
Atom   5H    basis set group =>   1
Atom   6H    basis set group =>   1
Atom   7O    basis set group =>   2
Atom   8H    basis set group =>   1
Atom   9H    basis set group =>   1
Atom  10O    basis set group =>   2
Atom  11H    basis set group =>   1
Atom  12H    basis set group =>   1
Atom  13O    basis set group =>   2
Atom  14H    basis set group =>   1
Atom  15H    basis set group =>   1
Atom  16O    basis set group =>   2
Atom  17H    basis set group =>   1


           ************************************************************
           *        Program running with 28 parallel MPI-processes    *
           *              working on a common directory               *
           ************************************************************
------------------------------------------------------------------------------
                           ORCA GTO INTEGRAL CALCULATION
------------------------------------------------------------------------------
------------------------------------------------------------------------------
                   ___                                                        
                  /   \      - P O W E R E D   B Y -                         
                 /     \                                                     
                 |  |  |   _    _      __       _____    __    __             
                 |  |  |  | |  | |    /  \     |  _  \  |  |  /  |          
                  \  \/   | |  | |   /    \    | | | |  |  | /  /          
                 / \  \   | |__| |  /  /\  \   | |_| |  |  |/  /          
                |  |  |   |  __  | /  /__\  \  |    /   |      \           
                |  |  |   | |  | | |   __   |  |    \   |  |\   \          
                \     /   | |  | | |  |  |  |  | |\  \  |  | \   \       
                 \___/    |_|  |_| |__|  |__|  |_| \__\ |__|  \__/        
                                                                              
                      - O R C A' S   B I G   F R I E N D -                    
                                      &                                       
                       - I N T E G R A L  F E E D E R -                       
                                                                              
 v1 FN, 2020, v2 2021                                                         
------------------------------------------------------------------------------


Reading SHARK input file cluster_dlpno_SP.SHARKINP.tmp ... ok
----------------------
SHARK INTEGRAL PACKAGE
----------------------

Number of atoms                             ...     18
Number of basis functions                   ...    588
Number of shells                            ...    228
Maximum angular momentum                    ...      3
Integral batch strategy                     ... SHARK/LIBINT Hybrid
RI-J (if used) integral strategy            ... SPLIT-RIJ (Revised 2003 algorithm where possible)
Printlevel                                  ...      1
Contraction scheme used                     ... PARTIAL GENERAL contraction
Coulomb Range Separation                    ... NOT USED
Exchange Range Separation                   ... NOT USED
Finite Nucleus Model                        ... NOT USED
Auxiliary Coulomb fitting basis             ... NOT available
Auxiliary J/K fitting basis                 ... NOT available
Auxiliary Correlation fitting basis         ... AVAILABLE
   # of basis functions in Aux-C            ...   1188
   # of shells in Aux-C                     ...    336
   Maximum angular momentum in Aux-C        ...      4
Auxiliary 'external' fitting basis          ... NOT available
Integral threshold                          ...     1.000000e-10
Primitive cut-off                           ...     1.000000e-11
Primitive pair pre-selection threshold      ...     1.000000e-11

Calculating pre-screening integrals         ... done (  0.1 sec) Dimension = 228
Calculating pre-screening integrals (ORCA)  ... done (  0.1 sec) Dimension = 192
Organizing shell pair data                  ... done (  0.2 sec)
Shell pair information
Total number of shell pairs                 ...     26106
Shell pairs after pre-screening             ...     20162
Total number of primitive shell pairs       ...     35034
Primitive shell pairs kept                  ...     24641
          la=0 lb=0:   4639 shell pairs
          la=1 lb=0:   5448 shell pairs
          la=1 lb=1:   1600 shell pairs
          la=2 lb=0:   3588 shell pairs
          la=2 lb=1:   2159 shell pairs
          la=2 lb=2:    760 shell pairs
          la=3 lb=0:    920 shell pairs
          la=3 lb=1:    590 shell pairs
          la=3 lb=2:    401 shell pairs
          la=3 lb=3:     57 shell pairs

Reading point charge file                   ... ok (582 point charges)
Calculating one electron integrals          ... done (  0.1 sec)
Calculating RI/C V-Matrix + Cholesky decomp.... done (  0.3 sec)
Calculating Nuclear repulsion               ... (+Point charges) done (  0.0 sec) ENN=    264.864622891012 Eh

SHARK setup successfully completed in   1.5 seconds

Maximum memory used throughout the entire GTOINT-calculation: 32.8 MB
ENUC WAS=  0.000000000
ENUC IS =  0.000000000


           ************************************************************
           *        Program running with 28 parallel MPI-processes    *
           *              working on a common directory               *
           ************************************************************
-------------------------------------------------------------------------------
                                 ORCA SCF
-------------------------------------------------------------------------------

------------
SCF SETTINGS
------------
Hamiltonian:
 Ab initio Hamiltonian  Method          .... Hartree-Fock(GTOs)


General Settings:
 Integral files         IntName         .... cluster_dlpno_SP
 Hartree-Fock type      HFTyp           .... RHF
 Total Charge           Charge          ....    0
 Multiplicity           Mult            ....    1
 Number of Electrons    NEL             ....   60
 Basis Dimension        Dim             ....  552
 Nuclear Repulsion      ENuc            ....    264.8646228910 Eh

Convergence Acceleration:
 DIIS                   CNVDIIS         .... on
   Start iteration      DIISMaxIt       ....    12
   Startup error        DIISStart       ....  0.200000
   # of expansion vecs  DIISMaxEq       ....     5
   Bias factor          DIISBfac        ....   1.050
   Max. coefficient     DIISMaxC        ....  10.000
 Trust-Rad. Augm. Hess. CNVTRAH         .... auto
   Auto Start mean grad. ratio tolernc. ....  1.125000
   Auto Start start iteration           ....    20
   Auto Start num. interpolation iter.  ....    10
   Max. Number of Micro iterations      ....    16
   Max. Number of Macro iterations      .... Maxiter - #DIIS iter
   Number of Davidson start vectors     ....     2
   Converg. threshold I  (grad. norm)   ....   5.000e-05
   Converg. threshold II (energy diff.) ....   1.000e-06
   Grad. Scal. Fac. for Micro threshold ....   0.100
   Minimum threshold for Micro iter.    ....   0.010
   NR start threshold (gradient norm)   ....   0.001
   Initial trust radius                 ....   0.400
   Minimum AH scaling param. (alpha)    ....   1.000
   Maximum AH scaling param. (alpha)    .... 1000.000
   Orbital update algorithm             .... Taylor
   White noise on init. David. guess    .... on
   Maximum white noise                  ....   0.010
   Quad. conv. algorithm                .... NR
 SOSCF                  CNVSOSCF        .... on
   Start iteration      SOSCFMaxIt      ....   150
   Startup grad/error   SOSCFStart      ....  0.003300
 Level Shifting         CNVShift        .... on
   Level shift para.    LevelShift      ....    0.2500
   Turn off err/grad.   ShiftErr        ....    0.0010
 Zerner damping         CNVZerner       .... off
 Static damping         CNVDamp         .... on
   Fraction old density DampFac         ....    0.7000
   Max. Damping (<1)    DampMax         ....    0.9800
   Min. Damping (>=0)   DampMin         ....    0.0000
   Turn off err/grad.   DampErr         ....    0.1000
 Fernandez-Rico         CNVRico         .... off

SCF Procedure:
 Maximum # iterations   MaxIter         ....   125
 SCF integral mode      SCFMode         .... Direct
   Integral package                     .... SHARK and LIBINT hybrid scheme
 Reset frequency        DirectResetFreq ....    20
 Integral Threshold     Thresh          ....  1.000e-10 Eh
 Primitive CutOff       TCut            ....  1.000e-11 Eh

Convergence Tolerance:
 Convergence Check Mode ConvCheckMode   .... Total+1el-Energy
 Convergence forced     ConvForced      .... 1
 Energy Change          TolE            ....  1.000e-06 Eh
 1-El. energy change                    ....  1.000e-03 Eh
 Orbital Gradient       TolG            ....  5.000e-05
 Orbital Rotation angle TolX            ....  5.000e-05
 DIIS Error             TolErr          ....  1.000e-06


Diagonalization of the overlap matrix:
Smallest eigenvalue                        ... 5.324e-05
Time for diagonalization                   ...    0.146 sec
Threshold for overlap eigenvalues          ... 1.000e-08
Number of eigenvalues below threshold      ... 0
Time for construction of square roots      ...    0.068 sec
Total time needed                          ...    0.218 sec

Time for model grid setup =    0.205 sec

------------------------------
INITIAL GUESS: MODEL POTENTIAL
------------------------------
Loading Hartree-Fock densities                     ... done
Calculating cut-offs                               ... done
Initializing the effective Hamiltonian             ... done
Setting up the integral package (SHARK)            ... done
Starting the Coulomb interaction                   ... done (   0.2 sec)
Reading the grid                                   ... done
Mapping shells                                     ... done
Starting the XC term evaluation                    ... done (   0.1 sec)
Transforming the Hamiltonian                       ... done (   0.1 sec)
Diagonalizing the Hamiltonian                      ... done (   0.1 sec)
Back transforming the eigenvectors                 ... done (   0.0 sec)
Now organizing SCF variables                       ... done
                      ------------------
                      INITIAL GUESS DONE (   0.7 sec)
                      ------------------
--------------
SCF ITERATIONS
--------------
ITER       Energy         Delta-E        Max-DP      RMS-DP      [F,P]     Damp
               ***  Starting incremental Fock matrix formation  ***
  0   -455.9265200702   0.000000000000 0.02787537  0.00042638  0.3986546 0.7000
  1   -456.1492976204  -0.222777550146 0.01875753  0.00030212  0.2329290 0.7000
                               ***Turning on DIIS***
  2   -456.2671830515  -0.117885431112 0.01209363  0.00017815  0.1232240 0.7000
  3   -457.1538146888  -0.886631637268 0.03100873  0.00036015  0.0853202 0.0000
  4   -456.3484737883   0.805340900449 0.00453643  0.00006071  0.0132586 0.0000
  5   -456.4812042008  -0.132730412503 0.00183111  0.00003076  0.0033805 0.0000
                      *** Initiating the SOSCF procedure ***
                           *** Shutting down DIIS ***
                      *** Re-Reading the Fockian *** 
                      *** Removing any level shift *** 
ITER      Energy       Delta-E        Grad      Rot      Max-DP    RMS-DP
  6   -456.48533051  -0.0041263094  0.000445  0.000445  0.001514  0.000017
               *** Restarting incremental Fock matrix formation ***
  7   -456.49490625  -0.0095757421  0.000127  0.000184  0.000278  0.000005
  8   -456.49491063  -0.0000043805  0.000046  0.000137  0.000298  0.000004
  9   -456.49491164  -0.0000010070  0.000024  0.000013  0.000049  0.000001
                 **** Energy Check signals convergence ****
              ***Rediagonalizing the Fockian in SOSCF/NRSCF***

               *****************************************************
               *                     SUCCESS                       *
               *           SCF CONVERGED AFTER  10 CYCLES          *
               *****************************************************


----------------
TOTAL SCF ENERGY
----------------

Total Energy       :         -456.49491169 Eh          -12421.85806 eV

Components:
Nuclear Repulsion  :          264.86462289 Eh            7207.33280 eV
Electronic Energy  :         -721.35953458 Eh          -19629.19086 eV
One Electron Energy:        -1156.87715311 Eh          -31480.22776 eV
Two Electron Energy:          435.51761853 Eh           11851.03690 eV

Virial components:
Potential Energy   :         -912.01688881 Eh          -24817.24123 eV
Kinetic Energy     :          455.52197712 Eh           12395.38317 eV
Virial Ratio       :            2.00213587


---------------
SCF CONVERGENCE
---------------

  Last Energy change         ...   -5.3142e-08  Tolerance :   1.0000e-06
  Last MAX-Density change    ...    1.4781e-05  Tolerance :   1.0000e-05
  Last RMS-Density change    ...    1.7693e-07  Tolerance :   1.0000e-06
  Last Orbital Gradient      ...    6.8592e-06  Tolerance :   5.0000e-05
  Last Orbital Rotation      ...    5.4021e-06  Tolerance :   5.0000e-05

             **** THE GBW FILE WAS UPDATED (cluster_dlpno_SP.gbw) ****
             **** DENSITY cluster_dlpno_SP.scfp WAS UPDATED ****
             **** ENERGY FILE WAS UPDATED (cluster_dlpno_SP.en.tmp) ****
             **** THE GBW FILE WAS UPDATED (cluster_dlpno_SP.gbw) ****
             **** DENSITY cluster_dlpno_SP.scfp WAS UPDATED ****
----------------
ORBITAL ENERGIES
----------------

  NO   OCC          E(Eh)            E(eV) 
   0   2.0000     -20.592752      -560.3573 
   1   2.0000     -20.590453      -560.2947 
   2   2.0000     -20.589755      -560.2757 
   3   2.0000     -20.588100      -560.2307 
   4   2.0000     -20.571813      -559.7875 
   5   2.0000     -20.566754      -559.6498 
   6   2.0000      -1.388865       -37.7929 
   7   2.0000      -1.372153       -37.3382 
   8   2.0000      -1.370644       -37.2971 
   9   2.0000      -1.364689       -37.1351 
  10   2.0000      -1.354169       -36.8488 
  11   2.0000      -1.344923       -36.5972 
  12   2.0000      -0.747783       -20.3482 
  13   2.0000      -0.743565       -20.2334 
  14   2.0000      -0.730198       -19.8697 
  15   2.0000      -0.724069       -19.7029 
  16   2.0000      -0.721978       -19.6460 
  17   2.0000      -0.714715       -19.4484 
  18   2.0000      -0.637452       -17.3460 
  19   2.0000      -0.631764       -17.1912 
  20   2.0000      -0.618550       -16.8316 
  21   2.0000      -0.607075       -16.5193 
  22   2.0000      -0.597627       -16.2623 
  23   2.0000      -0.581108       -15.8128 
  24   2.0000      -0.541324       -14.7302 
  25   2.0000      -0.538714       -14.6591 
  26   2.0000      -0.527763       -14.3612 
  27   2.0000      -0.526521       -14.3274 
  28   2.0000      -0.522864       -14.2279 
  29   2.0000      -0.512419       -13.9436 
  30   0.0000       0.019059         0.5186 
  31   0.0000       0.033105         0.9008 
  32   0.0000       0.038885         1.0581 
  33   0.0000       0.043960         1.1962 
  34   0.0000       0.047565         1.2943 
  35   0.0000       0.062194         1.6924 
  36   0.0000       0.063502         1.7280 
  37   0.0000       0.067090         1.8256 
  38   0.0000       0.070570         1.9203 
  39   0.0000       0.080876         2.2007 
  40   0.0000       0.084048         2.2871 
  41   0.0000       0.090071         2.4509 
  42   0.0000       0.141186         3.8419 
  43   0.0000       0.144892         3.9427 
  44   0.0000       0.150749         4.1021 
  45   0.0000       0.154671         4.2088 
  46   0.0000       0.161510         4.3949 
  47   0.0000       0.164169         4.4673 
  48   0.0000       0.167078         4.5464 
  49   0.0000       0.173728         4.7274 
  50   0.0000       0.180397         4.9089 
  51   0.0000       0.185133         5.0377 
  52   0.0000       0.191407         5.2085 
  53   0.0000       0.194567         5.2944 
  54   0.0000       0.197675         5.3790 
  55   0.0000       0.202262         5.5038 
  56   0.0000       0.205662         5.5963 
  57   0.0000       0.209867         5.7108 
  58   0.0000       0.214143         5.8271 
  59   0.0000       0.221082         6.0159 
  60   0.0000       0.229149         6.2355 
  61   0.0000       0.231222         6.2919 
  62   0.0000       0.240494         6.5442 
  63   0.0000       0.243378         6.6226 
  64   0.0000       0.246233         6.7003 
  65   0.0000       0.257378         7.0036 
  66   0.0000       0.260295         7.0830 
  67   0.0000       0.269483         7.3330 
  68   0.0000       0.276167         7.5149 
  69   0.0000       0.286905         7.8071 
  70   0.0000       0.295183         8.0323 
  71   0.0000       0.310853         8.4587 
  72   0.0000       0.311858         8.4861 
  73   0.0000       0.318933         8.6786 
  74   0.0000       0.327488         8.9114 
  75   0.0000       0.341908         9.3038 
  76   0.0000       0.346833         9.4378 
  77   0.0000       0.355710         9.6794 
  78   0.0000       0.360361         9.8059 
  79   0.0000       0.369720        10.0606 
  80   0.0000       0.371653        10.1132 
  81   0.0000       0.378734        10.3059 
  82   0.0000       0.386072        10.5056 
  83   0.0000       0.405030        11.0214 
  84   0.0000       0.410824        11.1791 
  85   0.0000       0.413716        11.2578 
  86   0.0000       0.416930        11.3452 
  87   0.0000       0.422947        11.5090 
  88   0.0000       0.424171        11.5423 
  89   0.0000       0.428165        11.6510 
  90   0.0000       0.436802        11.8860 
  91   0.0000       0.437144        11.8953 
  92   0.0000       0.448135        12.1944 
  93   0.0000       0.449595        12.2341 
  94   0.0000       0.456090        12.4108 
  95   0.0000       0.459196        12.4954 
  96   0.0000       0.464670        12.6443 
  97   0.0000       0.472780        12.8650 
  98   0.0000       0.476382        12.9630 
  99   0.0000       0.484093        13.1728 
 100   0.0000       0.488093        13.2817 
 101   0.0000       0.491205        13.3664 
 102   0.0000       0.495233        13.4760 
 103   0.0000       0.506693        13.7878 
 104   0.0000       0.516443        14.0531 
 105   0.0000       0.521615        14.1939 
 106   0.0000       0.531094        14.4518 
 107   0.0000       0.531785        14.4706 
 108   0.0000       0.549462        14.9516 
 109   0.0000       0.558332        15.1930 
 110   0.0000       0.573288        15.6000 
 111   0.0000       0.586973        15.9723 
 112   0.0000       0.598242        16.2790 
 113   0.0000       0.611170        16.6308 
 114   0.0000       0.621830        16.9209 
 115   0.0000       0.631055        17.1719 
 116   0.0000       0.650978        17.7140 
 117   0.0000       0.666778        18.1440 
 118   0.0000       0.673776        18.3344 
 119   0.0000       0.687289        18.7021 
 120   0.0000       0.692944        18.8560 
 121   0.0000       0.704867        19.1804 
 122   0.0000       0.705750        19.2044 
 123   0.0000       0.713455        19.4141 
 124   0.0000       0.722442        19.6586 
 125   0.0000       0.728942        19.8355 
 126   0.0000       0.731405        19.9025 
 127   0.0000       0.737882        20.0788 
 128   0.0000       0.748174        20.3588 
 129   0.0000       0.756616        20.5886 
 130   0.0000       0.759970        20.6798 
 131   0.0000       0.769080        20.9277 
 132   0.0000       0.774389        21.0722 
 133   0.0000       0.776401        21.1269 
 134   0.0000       0.793728        21.5984 
 135   0.0000       0.816403        22.2155 
 136   0.0000       0.824817        22.4444 
 137   0.0000       0.828309        22.5394 
 138   0.0000       0.833191        22.6723 
 139   0.0000       0.841080        22.8869 
 140   0.0000       0.850289        23.1375 
 141   0.0000       0.860929        23.4271 
 142   0.0000       0.868297        23.6276 
 143   0.0000       0.878422        23.9031 
 144   0.0000       0.891554        24.2604 
 145   0.0000       0.899236        24.4695 
 146   0.0000       0.908797        24.7296 
 147   0.0000       0.913869        24.8676 
 148   0.0000       0.922549        25.1038 
 149   0.0000       0.925817        25.1928 
 150   0.0000       0.931368        25.3438 
 151   0.0000       0.941228        25.6121 
 152   0.0000       0.945020        25.7153 
 153   0.0000       0.948644        25.8139 
 154   0.0000       0.955067        25.9887 
 155   0.0000       0.960840        26.1458 
 156   0.0000       0.967801        26.3352 
 157   0.0000       0.972203        26.4550 
 158   0.0000       0.985144        26.8071 
 159   0.0000       0.988962        26.9110 
 160   0.0000       0.991342        26.9758 
 161   0.0000       1.004797        27.3419 
 162   0.0000       1.014228        27.5986 
 163   0.0000       1.020966        27.7819 
 164   0.0000       1.033842        28.1323 
 165   0.0000       1.035998        28.1909 
 166   0.0000       1.040341        28.3091 
 167   0.0000       1.044237        28.4151 
 168   0.0000       1.049545        28.5596 
 169   0.0000       1.058679        28.8081 
 170   0.0000       1.063594        28.9419 
 171   0.0000       1.068001        29.0618 
 172   0.0000       1.078958        29.3599 
 173   0.0000       1.085152        29.5285 
 174   0.0000       1.090308        29.6688 
 175   0.0000       1.096213        29.8295 
 176   0.0000       1.102509        30.0008 
 177   0.0000       1.107583        30.1389 
 178   0.0000       1.119724        30.4693 
 179   0.0000       1.131424        30.7876 
 180   0.0000       1.133874        30.8543 
 181   0.0000       1.145781        31.1783 
 182   0.0000       1.152667        31.3657 
 183   0.0000       1.161000        31.5924 
 184   0.0000       1.170394        31.8480 
 185   0.0000       1.175926        31.9986 
 186   0.0000       1.180140        32.1132 
 187   0.0000       1.192030        32.4368 
 188   0.0000       1.195225        32.5237 
 189   0.0000       1.202579        32.7238 
 190   0.0000       1.209412        32.9098 
 191   0.0000       1.225499        33.3475 
 192   0.0000       1.232891        33.5487 
 193   0.0000       1.245815        33.9003 
 194   0.0000       1.248718        33.9793 
 195   0.0000       1.255271        34.1577 
 196   0.0000       1.261603        34.3300 
 197   0.0000       1.279279        34.8109 
 198   0.0000       1.282833        34.9077 
 199   0.0000       1.294280        35.2191 
 200   0.0000       1.299781        35.3688 
 201   0.0000       1.313221        35.7346 
 202   0.0000       1.327778        36.1307 
 203   0.0000       1.340510        36.4771 
 204   0.0000       1.355892        36.8957 
 205   0.0000       1.360576        37.0231 
 206   0.0000       1.365890        37.1678 
 207   0.0000       1.372317        37.3426 
 208   0.0000       1.388125        37.7728 
 209   0.0000       1.390590        37.8399 
 210   0.0000       1.395096        37.9625 
 211   0.0000       1.413475        38.4626 
 212   0.0000       1.418653        38.6035 
 213   0.0000       1.428102        38.8606 
 214   0.0000       1.443043        39.2672 
 215   0.0000       1.456277        39.6273 
 216   0.0000       1.462201        39.7885 
 217   0.0000       1.479326        40.2545 
 218   0.0000       1.486053        40.4376 
 219   0.0000       1.488569        40.5060 
 220   0.0000       1.501345        40.8537 
 221   0.0000       1.509165        41.0665 
 222   0.0000       1.536422        41.8082 
 223   0.0000       1.542108        41.9629 
 224   0.0000       1.557038        42.3692 
 225   0.0000       1.563122        42.5347 
 226   0.0000       1.566400        42.6239 
 227   0.0000       1.580308        43.0024 
 228   0.0000       1.592028        43.3213 
 229   0.0000       1.616341        43.9829 
 230   0.0000       1.618704        44.0472 
 231   0.0000       1.637907        44.5697 
 232   0.0000       1.645638        44.7801 
 233   0.0000       1.650368        44.9088 
 234   0.0000       1.668444        45.4007 
 235   0.0000       1.676815        45.6285 
 236   0.0000       1.689747        45.9804 
 237   0.0000       1.704217        46.3741 
 238   0.0000       1.713903        46.6377 
 239   0.0000       1.735593        47.2279 
 240   0.0000       1.751396        47.6579 
 241   0.0000       1.756312        47.7917 
 242   0.0000       1.766705        48.0745 
 243   0.0000       1.806371        49.1539 
 244   0.0000       1.818205        49.4759 
 245   0.0000       1.837997        50.0144 
 246   0.0000       1.843580        50.1664 
 247   0.0000       1.854110        50.4529 
 248   0.0000       1.864492        50.7354 
 249   0.0000       1.876726        51.0683 
 250   0.0000       1.902858        51.7794 
 251   0.0000       1.907709        51.9114 
 252   0.0000       1.928817        52.4858 
 253   0.0000       1.934938        52.6523 
 254   0.0000       1.961278        53.3691 
 255   0.0000       1.968103        53.5548 
 256   0.0000       1.980533        53.8930 
 257   0.0000       2.001835        54.4727 
 258   0.0000       2.013621        54.7934 
 259   0.0000       2.026585        55.1462 
 260   0.0000       2.065831        56.2141 
 261   0.0000       2.073535        56.4237 
 262   0.0000       2.084362        56.7184 
 263   0.0000       2.092973        56.9527 
 264   0.0000       2.102311        57.2068 
 265   0.0000       2.118637        57.6510 
 266   0.0000       2.180737        59.3409 
 267   0.0000       2.189706        59.5849 
 268   0.0000       2.195631        59.7462 
 269   0.0000       2.232562        60.7511 
 270   0.0000       2.258499        61.4569 
 271   0.0000       2.280019        62.0425 
 272   0.0000       2.301185        62.6184 
 273   0.0000       2.311578        62.9012 
 274   0.0000       2.322219        63.1908 
 275   0.0000       2.334884        63.5354 
 276   0.0000       2.357167        64.1418 
 277   0.0000       2.368736        64.4566 
 278   0.0000       2.389054        65.0095 
 279   0.0000       2.402337        65.3709 
 280   0.0000       2.412280        65.6415 
 281   0.0000       2.421964        65.9050 
 282   0.0000       2.427037        66.0430 
 283   0.0000       2.441039        66.4241 
 284   0.0000       2.456961        66.8573 
 285   0.0000       2.469174        67.1897 
 286   0.0000       2.477572        67.4182 
 287   0.0000       2.490108        67.7593 
 288   0.0000       2.493606        67.8545 
 289   0.0000       2.504783        68.1586 
 290   0.0000       2.525029        68.7095 
 291   0.0000       2.532586        68.9152 
 292   0.0000       2.545025        69.2537 
 293   0.0000       2.555840        69.5479 
 294   0.0000       2.560213        69.6669 
 295   0.0000       2.566017        69.8249 
 296   0.0000       2.579929        70.2034 
 297   0.0000       2.588544        70.4379 
 298   0.0000       2.596794        70.6624 
 299   0.0000       2.605782        70.9069 
 300   0.0000       2.626462        71.4697 
 301   0.0000       2.635589        71.7180 
 302   0.0000       2.655745        72.2665 
 303   0.0000       2.670746        72.6747 
 304   0.0000       2.681194        72.9590 
 305   0.0000       2.687248        73.1237 
 306   0.0000       2.705336        73.6159 
 307   0.0000       2.709993        73.7427 
 308   0.0000       2.714441        73.8637 
 309   0.0000       2.727917        74.2304 
 310   0.0000       2.740512        74.5731 
 311   0.0000       2.751238        74.8650 
 312   0.0000       2.768349        75.3306 
 313   0.0000       2.779625        75.6374 
 314   0.0000       2.782041        75.7032 
 315   0.0000       2.799212        76.1704 
 316   0.0000       2.819978        76.7355 
 317   0.0000       2.822925        76.8157 
 318   0.0000       2.836115        77.1746 
 319   0.0000       2.841252        77.3144 
 320   0.0000       2.847843        77.4938 
 321   0.0000       2.852486        77.6201 
 322   0.0000       2.860699        77.8436 
 323   0.0000       2.871969        78.1502 
 324   0.0000       2.885778        78.5260 
 325   0.0000       2.902181        78.9724 
 326   0.0000       2.914503        79.3077 
 327   0.0000       2.920686        79.4759 
 328   0.0000       2.931276        79.7641 
 329   0.0000       2.952685        80.3466 
 330   0.0000       2.957788        80.4855 
 331   0.0000       2.974460        80.9392 
 332   0.0000       2.983016        81.1720 
 333   0.0000       3.002796        81.7102 
 334   0.0000       3.022920        82.2578 
 335   0.0000       3.032909        82.5297 
 336   0.0000       3.046436        82.8978 
 337   0.0000       3.064440        83.3877 
 338   0.0000       3.082120        83.8688 
 339   0.0000       3.106096        84.5212 
 340   0.0000       3.119310        84.8807 
 341   0.0000       3.141636        85.4883 
 342   0.0000       3.148452        85.6737 
 343   0.0000       3.191684        86.8501 
 344   0.0000       3.256162        88.6047 
 345   0.0000       3.300835        89.8203 
 346   0.0000       3.340815        90.9082 
 347   0.0000       3.414002        92.8997 
 348   0.0000       3.721783       101.2749 
 349   0.0000       3.802109       103.4607 
 350   0.0000       3.817299       103.8740 
 351   0.0000       3.875985       105.4709 
 352   0.0000       3.888195       105.8032 
 353   0.0000       3.926536       106.8465 
 354   0.0000       3.988864       108.5425 
 355   0.0000       3.999368       108.8283 
 356   0.0000       4.051315       110.2419 
 357   0.0000       4.068854       110.7191 
 358   0.0000       4.082633       111.0941 
 359   0.0000       4.086558       111.2009 
 360   0.0000       4.106559       111.7451 
 361   0.0000       4.141669       112.7005 
 362   0.0000       4.151231       112.9607 
 363   0.0000       4.172728       113.5457 
 364   0.0000       4.181923       113.7959 
 365   0.0000       4.200553       114.3029 
 366   0.0000       4.202225       114.3484 
 367   0.0000       4.218362       114.7875 
 368   0.0000       4.222834       114.9091 
 369   0.0000       4.241545       115.4183 
 370   0.0000       4.245524       115.5266 
 371   0.0000       4.255444       115.7965 
 372   0.0000       4.269736       116.1854 
 373   0.0000       4.280295       116.4728 
 374   0.0000       4.299390       116.9924 
 375   0.0000       4.306088       117.1746 
 376   0.0000       4.312330       117.3445 
 377   0.0000       4.316930       117.4696 
 378   0.0000       4.334305       117.9424 
 379   0.0000       4.351809       118.4187 
 380   0.0000       4.352972       118.4504 
 381   0.0000       4.378776       119.1525 
 382   0.0000       4.391517       119.4992 
 383   0.0000       4.392034       119.5133 
 384   0.0000       4.413956       120.1098 
 385   0.0000       4.426875       120.4614 
 386   0.0000       4.438298       120.7722 
 387   0.0000       4.449813       121.0856 
 388   0.0000       4.464202       121.4771 
 389   0.0000       4.487654       122.1153 
 390   0.0000       4.492788       122.2550 
 391   0.0000       4.497336       122.3787 
 392   0.0000       4.500650       122.4689 
 393   0.0000       4.519194       122.9735 
 394   0.0000       4.526896       123.1831 
 395   0.0000       4.543308       123.6297 
 396   0.0000       4.562717       124.1578 
 397   0.0000       4.571036       124.3842 
 398   0.0000       4.588747       124.8662 
 399   0.0000       4.596920       125.0885 
 400   0.0000       4.605762       125.3292 
 401   0.0000       4.613574       125.5417 
 402   0.0000       4.650758       126.5536 
 403   0.0000       4.674625       127.2030 
 404   0.0000       4.679101       127.3248 
 405   0.0000       4.689937       127.6197 
 406   0.0000       4.713563       128.2626 
 407   0.0000       4.726769       128.6219 
 408   0.0000       4.734252       128.8255 
 409   0.0000       4.761129       129.5569 
 410   0.0000       4.771206       129.8311 
 411   0.0000       4.778212       130.0217 
 412   0.0000       4.799486       130.6006 
 413   0.0000       4.828115       131.3797 
 414   0.0000       4.847613       131.9102 
 415   0.0000       4.861624       132.2915 
 416   0.0000       4.869981       132.5189 
 417   0.0000       4.905873       133.4956 
 418   0.0000       4.922891       133.9587 
 419   0.0000       4.929905       134.1495 
 420   0.0000       4.981821       135.5622 
 421   0.0000       4.995005       135.9210 
 422   0.0000       5.032353       136.9373 
 423   0.0000       5.046317       137.3173 
 424   0.0000       5.084766       138.3635 
 425   0.0000       5.105449       138.9263 
 426   0.0000       5.106003       138.9414 
 427   0.0000       5.147751       140.0774 
 428   0.0000       5.152313       140.2016 
 429   0.0000       5.168005       140.6286 
 430   0.0000       5.189580       141.2156 
 431   0.0000       5.206388       141.6730 
 432   0.0000       5.233972       142.4236 
 433   0.0000       5.246701       142.7700 
 434   0.0000       5.253964       142.9676 
 435   0.0000       5.278592       143.6378 
 436   0.0000       5.298411       144.1771 
 437   0.0000       5.311876       144.5435 
 438   0.0000       5.328748       145.0026 
 439   0.0000       5.347466       145.5119 
 440   0.0000       5.354378       145.7000 
 441   0.0000       5.367233       146.0498 
 442   0.0000       5.376912       146.3132 
 443   0.0000       5.397990       146.8868 
 444   0.0000       5.422488       147.5534 
 445   0.0000       5.426134       147.6526 
 446   0.0000       5.437846       147.9713 
 447   0.0000       5.500234       149.6690 
 448   0.0000       5.528838       150.4473 
 449   0.0000       5.542682       150.8240 
 450   0.0000       5.579246       151.8190 
 451   0.0000       5.617689       152.8651 
 452   0.0000       5.622684       153.0010 
 453   0.0000       5.653489       153.8393 
 454   0.0000       5.699143       155.0816 
 455   0.0000       5.735845       156.0803 
 456   0.0000       5.764718       156.8660 
 457   0.0000       5.798831       157.7942 
 458   0.0000       5.819140       158.3468 
 459   0.0000       5.857633       159.3943 
 460   0.0000       5.918059       161.0386 
 461   0.0000       6.057368       164.8293 
 462   0.0000       6.225463       169.4035 
 463   0.0000       6.236616       169.7070 
 464   0.0000       6.357026       172.9835 
 465   0.0000       6.380789       173.6301 
 466   0.0000       6.404475       174.2746 
 467   0.0000       6.500808       176.8960 
 468   0.0000       6.537595       177.8970 
 469   0.0000       6.544877       178.0952 
 470   0.0000       6.576093       178.9446 
 471   0.0000       6.584438       179.1717 
 472   0.0000       6.614491       179.9895 
 473   0.0000       6.679809       181.7669 
 474   0.0000       6.758555       183.9096 
 475   0.0000       6.789138       184.7418 
 476   0.0000       6.810475       185.3224 
 477   0.0000       6.846529       186.3035 
 478   0.0000       6.886304       187.3859 
 479   0.0000       6.912878       188.1090 
 480   0.0000       6.942256       188.9084 
 481   0.0000       6.959736       189.3841 
 482   0.0000       7.011988       190.8059 
 483   0.0000       7.024046       191.1340 
 484   0.0000       7.068338       192.3393 
 485   0.0000       7.088705       192.8935 
 486   0.0000       7.151288       194.5964 
 487   0.0000       7.183480       195.4724 
 488   0.0000       7.196303       195.8214 
 489   0.0000       7.213230       196.2820 
 490   0.0000       7.226509       196.6433 
 491   0.0000       7.248766       197.2489 
 492   0.0000       7.267814       197.7673 
 493   0.0000       7.271343       197.8633 
 494   0.0000       7.275237       197.9693 
 495   0.0000       7.284760       198.2284 
 496   0.0000       7.296550       198.5492 
 497   0.0000       7.299247       198.6226 
 498   0.0000       7.308180       198.8657 
 499   0.0000       7.325328       199.3323 
 500   0.0000       7.336754       199.6432 
 501   0.0000       7.355602       200.1561 
 502   0.0000       7.368466       200.5061 
 503   0.0000       7.371171       200.5798 
 504   0.0000       7.373560       200.6448 
 505   0.0000       7.387774       201.0315 
 506   0.0000       7.398989       201.3367 
 507   0.0000       7.399735       201.3570 
 508   0.0000       7.409021       201.6097 
 509   0.0000       7.419709       201.9006 
 510   0.0000       7.447757       202.6638 
 511   0.0000       7.472357       203.3332 
 512   0.0000       7.493575       203.9106 
 513   0.0000       7.501240       204.1191 
 514   0.0000       7.514587       204.4823 
 515   0.0000       7.537101       205.0949 
 516   0.0000       7.545077       205.3120 
 517   0.0000       7.564674       205.8452 
 518   0.0000       7.598906       206.7767 
 519   0.0000       7.611476       207.1188 
 520   0.0000       7.638721       207.8602 
 521   0.0000       7.705359       209.6735 
 522   0.0000       7.714188       209.9137 
 523   0.0000       7.734339       210.4621 
 524   0.0000       7.740425       210.6277 
 525   0.0000       7.783282       211.7939 
 526   0.0000       7.897132       214.8919 
 527   0.0000       7.914959       215.3770 
 528   0.0000       7.953124       216.4155 
 529   0.0000       7.962324       216.6658 
 530   0.0000       7.970420       216.8861 
 531   0.0000       7.984328       217.2646 
 532   0.0000       7.997039       217.6105 
 533   0.0000       8.015492       218.1126 
 534   0.0000       8.043957       218.8872 
 535   0.0000       8.058197       219.2747 
 536   0.0000       8.084686       219.9955 
 537   0.0000       8.094195       220.2542 
 538   0.0000       8.126721       221.1393 
 539   0.0000       8.302487       225.9221 
 540   0.0000       8.761631       238.4161 
 541   0.0000       8.861530       241.1345 
 542   0.0000       8.864800       241.2235 
 543   0.0000       8.914013       242.5626 
 544   0.0000       8.941080       243.2992 
 545   0.0000       8.997222       244.8269 
 546   0.0000      15.989580       435.0986 
 547   0.0000      16.181904       440.3320 
 548   0.0000      16.412405       446.6042 
 549   0.0000      16.670592       453.6299 
 550   0.0000      16.884358       459.4468 
 551   0.0000      17.896620       486.9918 

                    ********************************
                    * MULLIKEN POPULATION ANALYSIS *
                    ********************************

-----------------------
MULLIKEN ATOMIC CHARGES
-----------------------
   0 H :    0.177874
   1 O :   -0.529648
   2 H :    0.392337
   3 H :    0.228827
   4 O :   -0.528710
   5 H :    0.330156
   6 H :    0.231450
   7 O :   -0.577368
   8 H :    0.346832
   9 H :    0.232186
  10 O :   -0.497765
  11 H :    0.265388
  12 H :    0.240025
  13 O :   -0.660457
  14 H :    0.344759
  15 H :    0.312892
  16 O :   -0.594346
  17 H :    0.285567
Sum of atomic charges:   -0.0000000

--------------------------------
MULLIKEN REDUCED ORBITAL CHARGES
--------------------------------
  0 H s       :     0.672658  s :     0.672658
      pz      :     0.038977  p :     0.123441
      px      :     0.048447
      py      :     0.036017
      dz2     :     0.006116  d :     0.026027
      dxz     :     0.003325
      dyz     :     0.007220
      dx2y2   :     0.005300
      dxy     :     0.004066
  1 O s       :     3.844821  s :     3.844821
      pz      :     1.579097  p :     4.669736
      px      :     1.735433
      py      :     1.355206
      dz2     :    -0.002214  d :     0.014876
      dxz     :     0.001173
      dyz     :     0.011930
      dx2y2   :     0.005534
      dxy     :    -0.001547
      f0      :    -0.000136  f :     0.000215
      f+1     :    -0.000138
      f-1     :     0.000076
      f+2     :     0.000056
      f-2     :     0.000135
      f+3     :     0.000048
      f-3     :     0.000175
  2 H s       :     0.507491  s :     0.507491
      pz      :     0.053148  p :     0.050543
      px      :     0.036685
      py      :    -0.039289
      dz2     :     0.010922  d :     0.049629
      dxz     :     0.006342
      dyz     :     0.011654
      dx2y2   :     0.009853
      dxy     :     0.010857
  3 H s       :     0.626931  s :     0.626931
      pz      :     0.046419  p :     0.119017
      px      :     0.034427
      py      :     0.038171
      dz2     :     0.005994  d :     0.025225
      dxz     :     0.006872
      dyz     :     0.008318
      dx2y2   :     0.001933
      dxy     :     0.002108
  4 O s       :     3.881063  s :     3.881063
      pz      :     1.349510  p :     4.633292
      px      :     1.495997
      py      :     1.787786
      dz2     :     0.001085  d :     0.014223
      dxz     :     0.005039
      dyz     :     0.002099
      dx2y2   :     0.003521
      dxy     :     0.002479
      f0      :    -0.000112  f :     0.000132
      f+1     :     0.000048
      f-1     :     0.000102
      f+2     :    -0.000002
      f-2     :     0.000055
      f+3     :     0.000122
      f-3     :    -0.000081
  5 H s       :     0.543643  s :     0.543643
      pz      :     0.027789  p :     0.093557
      px      :     0.026500
      py      :     0.039268
      dz2     :     0.006661  d :     0.032643
      dxz     :     0.006789
      dyz     :     0.005825
      dx2y2   :     0.002459
      dxy     :     0.010909
  6 H s       :     0.659205  s :     0.659205
      pz      :     0.033171  p :     0.094752
      px      :     0.032513
      py      :     0.029068
      dz2     :    -0.000106  d :     0.014593
      dxz     :     0.002407
      dyz     :     0.003864
      dx2y2   :     0.007619
      dxy     :     0.000809
  7 O s       :     3.879373  s :     3.879373
      pz      :     1.494719  p :     4.674595
      px      :     1.607523
      py      :     1.572353
      dz2     :     0.010057  d :     0.022410
      dxz     :     0.001771
      dyz     :     0.002721
      dx2y2   :     0.000599
      dxy     :     0.007262
      f0      :     0.000027  f :     0.000990
      f+1     :     0.000190
      f-1     :     0.000309
      f+2     :     0.000038
      f-2     :     0.000019
      f+3     :     0.000091
      f-3     :     0.000315
  8 H s       :     0.570221  s :     0.570221
      pz      :    -0.015175  p :     0.057489
      px      :     0.034893
      py      :     0.037770
      dz2     :     0.011556  d :     0.025458
      dxz     :     0.011025
      dyz     :     0.000618
      dx2y2   :     0.001221
      dxy     :     0.001038
  9 H s       :     0.647378  s :     0.647378
      pz      :     0.023718  p :     0.101483
      px      :     0.044514
      py      :     0.033251
      dz2     :     0.002030  d :     0.018954
      dxz     :     0.008776
      dyz     :     0.006793
      dx2y2   :     0.000930
      dxy     :     0.000425
 10 O s       :     3.871563  s :     3.871563
      pz      :     1.348117  p :     4.611651
      px      :     1.861787
      py      :     1.401748
      dz2     :     0.007166  d :     0.013713
      dxz     :     0.000228
      dyz     :     0.001055
      dx2y2   :     0.004426
      dxy     :     0.000837
      f0      :     0.000240  f :     0.000838
      f+1     :     0.000107
      f-1     :     0.000044
      f+2     :    -0.000019
      f-2     :     0.000022
      f+3     :     0.000097
      f-3     :     0.000348
 11 H s       :     0.616724  s :     0.616724
      pz      :     0.030632  p :     0.096508
      px      :     0.046399
      py      :     0.019476
      dz2     :     0.002631  d :     0.021380
      dxz     :     0.001290
      dyz     :     0.005296
      dx2y2   :     0.002891
      dxy     :     0.009272
 12 H s       :     0.639928  s :     0.639928
      pz      :     0.027733  p :     0.098644
      px      :     0.028818
      py      :     0.042093
      dz2     :     0.001338  d :     0.021402
      dxz     :     0.007655
      dyz     :     0.001349
      dx2y2   :     0.002355
      dxy     :     0.008706
 13 O s       :     3.891814  s :     3.891814
      pz      :     1.542278  p :     4.745858
      px      :     1.323700
      py      :     1.879880
      dz2     :     0.007489  d :     0.022099
      dxz     :     0.010142
      dyz     :     0.000198
      dx2y2   :     0.003460
      dxy     :     0.000810
      f0      :     0.000046  f :     0.000686
      f+1     :     0.000110
      f-1     :    -0.000057
      f+2     :     0.000256
      f-2     :     0.000011
      f+3     :     0.000303
      f-3     :     0.000017
 14 H s       :     0.537806  s :     0.537806
      pz      :     0.010221  p :     0.063387
      px      :     0.012949
      py      :     0.040217
      dz2     :     0.022170  d :     0.054048
      dxz     :     0.008074
      dyz     :     0.013463
      dx2y2   :     0.003697
      dxy     :     0.006643
 15 H s       :     0.576889  s :     0.576889
      pz      :     0.034951  p :     0.083143
      px      :     0.014540
      py      :     0.033652
      dz2     :     0.000512  d :     0.027075
      dxz     :     0.004896
      dyz     :     0.003004
      dx2y2   :     0.016223
      dxy     :     0.002441
 16 O s       :     3.860648  s :     3.860648
      pz      :     1.553376  p :     4.721349
      px      :     1.675579
      py      :     1.492394
      dz2     :     0.002313  d :     0.011105
      dxz     :     0.000253
      dyz     :     0.003477
      dx2y2   :     0.000947
      dxy     :     0.004114
      f0      :     0.000113  f :     0.001245
      f+1     :    -0.000036
      f-1     :     0.000356
      f+2     :     0.000039
      f-2     :     0.000263
      f+3     :     0.000295
      f-3     :     0.000216
 17 H s       :     0.582558  s :     0.582558
      pz      :     0.035313  p :     0.107304
      px      :     0.037897
      py      :     0.034094
      dz2     :     0.008152  d :     0.024571
      dxz     :     0.005911
      dyz     :     0.003532
      dx2y2   :     0.003357
      dxy     :     0.003618


                     *******************************
                     * LOEWDIN POPULATION ANALYSIS *
                     *******************************

----------------------
LOEWDIN ATOMIC CHARGES
----------------------
   0 H :   -0.378912
   1 O :    1.095951
   2 H :   -0.697237
   3 H :   -0.378115
   4 O :    1.110101
   5 H :   -0.580234
   6 H :   -0.513012
   7 O :    1.007167
   8 H :   -0.681341
   9 H :   -0.469312
  10 O :    1.069732
  11 H :   -0.443413
  12 H :   -0.440735
  13 O :    1.070231
  14 H :   -0.708528
  15 H :   -0.604771
  16 O :    1.010402
  17 H :   -0.467972

-------------------------------
LOEWDIN REDUCED ORBITAL CHARGES
-------------------------------
  0 H s       :     0.532526  s :     0.532526
      pz      :     0.157533  p :     0.490412
      px      :     0.182084
      py      :     0.150796
      dz2     :     0.070600  d :     0.355973
      dxz     :     0.065364
      dyz     :     0.060829
      dx2y2   :     0.090002
      dxy     :     0.069178
  1 O s       :     2.941078  s :     2.941078
      pz      :     1.299103  p :     3.836455
      px      :     1.339695
      py      :     1.197657
      dz2     :     0.019664  d :     0.108015
      dxz     :     0.018003
      dyz     :     0.036126
      dx2y2   :     0.017471
      dxy     :     0.016751
      f0      :     0.003990  f :     0.018501
      f+1     :     0.002388
      f-1     :     0.001398
      f+2     :     0.003924
      f-2     :     0.004236
      f+3     :     0.000617
      f-3     :     0.001948
  2 H s       :     0.515407  s :     0.515407
      pz      :     0.184812  p :     0.634676
      px      :     0.149676
      py      :     0.300189
      dz2     :     0.094614  d :     0.547153
      dxz     :     0.040289
      dyz     :     0.148511
      dx2y2   :     0.125132
      dxy     :     0.138607
  3 H s       :     0.535942  s :     0.535942
      pz      :     0.198702  p :     0.492004
      px      :     0.134777
      py      :     0.158525
      dz2     :     0.104602  d :     0.350169
      dxz     :     0.099974
      dyz     :     0.097487
      dx2y2   :     0.021301
      dxy     :     0.026805
  4 O s       :     2.942236  s :     2.942236
      pz      :     1.181684  p :     3.825006
      px      :     1.278021
      py      :     1.365302
      dz2     :     0.021612  d :     0.103483
      dxz     :     0.027718
      dyz     :     0.019773
      dx2y2   :     0.026495
      dxy     :     0.007886
      f0      :     0.002828  f :     0.019174
      f+1     :     0.002691
      f-1     :     0.003164
      f+2     :     0.005194
      f-2     :     0.001517
      f+3     :     0.002307
      f-3     :     0.001472
  5 H s       :     0.532948  s :     0.532948
      pz      :     0.168412  p :     0.575470
      px      :     0.257317
      py      :     0.149741
      dz2     :     0.092332  d :     0.471816
      dxz     :     0.125494
      dyz     :     0.042931
      dx2y2   :     0.102336
      dxy     :     0.108724
  6 H s       :     0.588922  s :     0.588922
      pz      :     0.141234  p :     0.555275
      px      :     0.219914
      py      :     0.194127
      dz2     :     0.030333  d :     0.368815
      dxz     :     0.064966
      dyz     :     0.060254
      dx2y2   :     0.122405
      dxy     :     0.090857
  7 O s       :     3.007847  s :     3.007847
      pz      :     1.292559  p :     3.899807
      px      :     1.316088
      py      :     1.291160
      dz2     :     0.028486  d :     0.071450
      dxz     :     0.002051
      dyz     :     0.013528
      dx2y2   :     0.001600
      dxy     :     0.025786
      f0      :     0.001884  f :     0.013730
      f+1     :     0.002555
      f-1     :     0.004068
      f+2     :     0.000440
      f-2     :     0.000456
      f+3     :     0.001153
      f-3     :     0.003174
  8 H s       :     0.562405  s :     0.562405
      pz      :     0.302692  p :     0.618577
      px      :     0.148874
      py      :     0.167012
      dz2     :     0.188154  d :     0.500358
      dxz     :     0.126819
      dyz     :     0.132698
      dx2y2   :     0.021258
      dxy     :     0.031430
  9 H s       :     0.575513  s :     0.575513
      pz      :     0.234963  p :     0.532022
      px      :     0.160040
      py      :     0.137018
      dz2     :     0.114925  d :     0.361777
      dxz     :     0.114704
      dyz     :     0.121053
      dx2y2   :     0.005115
      dxy     :     0.005978
 10 O s       :     2.974452  s :     2.974452
      pz      :     1.207035  p :     3.855105
      px      :     1.398375
      py      :     1.249696
      dz2     :     0.037488  d :     0.084134
      dxz     :     0.010623
      dyz     :     0.009060
      dx2y2   :     0.021567
      dxy     :     0.005396
      f0      :     0.006218  f :     0.016577
      f+1     :     0.001850
      f-1     :     0.002203
      f+2     :     0.001532
      f-2     :     0.000423
      f+3     :     0.000548
      f-3     :     0.003801
 11 H s       :     0.556163  s :     0.556163
      pz      :     0.129645  p :     0.521286
      px      :     0.151060
      py      :     0.240581
      dz2     :     0.046468  d :     0.365964
      dxz     :     0.009116
      dyz     :     0.105441
      dx2y2   :     0.092443
      dxy     :     0.112495
 12 H s       :     0.558206  s :     0.558206
      pz      :     0.145946  p :     0.519625
      px      :     0.217132
      py      :     0.156547
      dz2     :     0.044977  d :     0.362904
      dxz     :     0.113626
      dyz     :     0.017917
      dx2y2   :     0.083657
      dxy     :     0.102728
 13 O s       :     2.972183  s :     2.972183
      pz      :     1.281968  p :     3.851955
      px      :     1.169367
      py      :     1.400620
      dz2     :     0.027900  d :     0.089552
      dxz     :     0.035533
      dyz     :     0.005388
      dx2y2   :     0.019164
      dxy     :     0.001567
      f0      :     0.003479  f :     0.016079
      f+1     :     0.005693
      f-1     :     0.000748
      f+2     :     0.003227
      f-2     :     0.000286
      f+3     :     0.002189
      f-3     :     0.000458
 14 H s       :     0.526651  s :     0.526651
      pz      :     0.313736  p :     0.639933
      px      :     0.174353
      py      :     0.151844
      dz2     :     0.185353  d :     0.541944
      dxz     :     0.137388
      dyz     :     0.129903
      dx2y2   :     0.048579
      dxy     :     0.040722
 15 H s       :     0.566748  s :     0.566748
      pz      :     0.153683  p :     0.590447
      px      :     0.229187
      py      :     0.207577
      dz2     :     0.043055  d :     0.447576
      dxz     :     0.068321
      dyz     :     0.081032
      dx2y2   :     0.143515
      dxy     :     0.111652
 16 O s       :     2.990623  s :     2.990623
      pz      :     1.308408  p :     3.914648
      px      :     1.339976
      py      :     1.266263
      dz2     :     0.015790  d :     0.071025
      dxz     :     0.008714
      dyz     :     0.022300
      dx2y2   :     0.003300
      dxy     :     0.020922
      f0      :     0.002071  f :     0.013302
      f+1     :     0.001032
      f-1     :     0.004228
      f+2     :     0.000665
      f-2     :     0.001854
      f+3     :     0.002241
      f-3     :     0.001210
 17 H s       :     0.558647  s :     0.558647
      pz      :     0.231351  p :     0.532055
      px      :     0.143510
      py      :     0.157194
      dz2     :     0.125851  d :     0.377271
      dxz     :     0.086605
      dyz     :     0.090168
      dx2y2   :     0.032569
      dxy     :     0.042077


                      *****************************
                      * MAYER POPULATION ANALYSIS *
                      *****************************

  NA   - Mulliken gross atomic population
  ZA   - Total nuclear charge
  QA   - Mulliken gross atomic charge
  VA   - Mayer's total valence
  BVA  - Mayer's bonded valence
  FA   - Mayer's free valence

  ATOM       NA         ZA         QA         VA         BVA        FA
  0 H      0.8221     1.0000     0.1779     1.1276     1.1276    -0.0000
  1 O      8.5296     8.0000    -0.5296     1.8384     1.8384    -0.0000
  2 H      0.6077     1.0000     0.3923     0.8547     0.8547     0.0000
  3 H      0.7712     1.0000     0.2288     1.0818     1.0818    -0.0000
  4 O      8.5287     8.0000    -0.5287     1.9093     1.9093     0.0000
  5 H      0.6698     1.0000     0.3302     0.9121     0.9121     0.0000
  6 H      0.7685     1.0000     0.2315     1.0355     1.0355     0.0000
  7 O      8.5774     8.0000    -0.5774     1.8223     1.8223     0.0000
  8 H      0.6532     1.0000     0.3468     0.8857     0.8857    -0.0000
  9 H      0.7678     1.0000     0.2322     1.0311     1.0311    -0.0000
 10 O      8.4978     8.0000    -0.4978     1.8889     1.8889    -0.0000
 11 H      0.7346     1.0000     0.2654     1.0065     1.0065    -0.0000
 12 H      0.7600     1.0000     0.2400     1.0553     1.0553     0.0000
 13 O      8.6605     8.0000    -0.6605     1.7058     1.7058    -0.0000
 14 H      0.6552     1.0000     0.3448     0.9576     0.9576    -0.0000
 15 H      0.6871     1.0000     0.3129     0.9481     0.9481     0.0000
 16 O      8.5943     8.0000    -0.5943     1.8957     1.8957     0.0000
 17 H      0.7144     1.0000     0.2856     1.0279     1.0279    -0.0000

  Mayer bond orders larger than 0.100000
B(  0-H ,  1-O ) :   1.1029 B(  1-O ,  2-H ) :   0.7669 B(  1-O , 14-H ) :   0.1085 
B(  3-H ,  4-O ) :   1.0124 B(  4-O ,  5-H ) :   0.9187 B(  6-H ,  7-O ) :   0.9975 
B(  7-O ,  8-H ) :   0.8713 B(  9-H , 10-O ) :   0.9888 B( 10-O , 11-H ) :   0.9654 
B( 12-H , 13-O ) :   1.0165 B( 13-O , 14-H ) :   0.8088 B( 15-H , 16-O ) :   0.9293 
B( 16-O , 17-H ) :   0.9867 

-------
TIMINGS
-------

Total SCF time: 0 days 0 hours 1 min 24 sec 

Total time                  ....      84.462 sec
Sum of individual times     ....      82.827 sec  ( 98.1%)

Fock matrix formation       ....      79.709 sec  ( 94.4%)
Diagonalization             ....       1.129 sec  (  1.3%)
Density matrix formation    ....       0.048 sec  (  0.1%)
Population analysis         ....       0.194 sec  (  0.2%)
Initial guess               ....       0.466 sec  (  0.6%)
Orbital Transformation      ....       0.000 sec  (  0.0%)
Orbital Orthonormalization  ....       0.000 sec  (  0.0%)
DIIS solution               ....       0.575 sec  (  0.7%)
SOSCF solution              ....       0.501 sec  (  0.6%)

Maximum memory used throughout the entire SCF-calculation: 251.0 MB


           ************************************************************
           *        Program running with 28 parallel MPI-processes    *
[...]
   TCutDO    ...     2.0e-02
   TCutCMO   ...     1.0e-03
   TCutCPAO  ...     1.0e-03

--------------------------------
LOCAL RI TRANSFORMATION (IAVPAO)
--------------------------------

Orbital window:       6 to 29
Number of PAOs:     552
Basis functions:    552 (192 shells)
Aux. functions:    1188 (336 shells)
Use SHARK:           on

Processing maps (0.0 sec)
Average map sizes:
   Aux shells -> MOs              23.8
   Aux shells -> PAOs            552.0
   MOs        -> AO shells       185.9
   PAOs       -> AO shells       192.0

Calculating integrals (1.1 sec, 118.927 MB)
Sorting integrals (0.7 sec, 118.914 MB)
Total time for the integral transformation: 1.8 sec
--------------------------------
INITIAL GUESS AND PNO GENERATION
--------------------------------

PNO truncation parameters                   .... 
    ScaleTCutPNO       =        1.000e-02
    PAOOverlapThresh   =        1.000e-08

    TCutPairs          =        1.000e-05
    TCutPNO            =        1.000e-07
    TCutPNOSingles     =        3.000e-09
    TCutMP2Pairs       =        1.000e-06
    TCutMKN            =        1.000e-03
    TCutDO             =        5.000e-03

Pair selection                          .... not used
Type of local MP2 treatment                 .... full local PMP2
Strategy for PNO selection                  .... occupation number selection
Pair density normalization                  .... MP2 norm
Spin component scaling                      .... not used

PASS-1: Formation of initial guess LMP2 amplitudes
Initial amplitudes guess done. Entering LMP2 iteration loop:
   Max. no of iterations          ...  50
   Energy convergence tolerance   ...    1.0e-07
   Residual convergence tolerance ...    5.0e-07
   Fock matrix cutoff             ...    1.0e-05 Eh
   DIIS convergence acceleration parameters:
        Max # vectors in DIIS     ... 7
        Start iteration of DIIS   ... 0
        Levelshift                ... 2.000e-01
        Damping factor 1          ... 5.000e-01
        Damping factor 2          ... 1.000e+00
   L-MP2 PNO cut-off              ...   1.0e-09
   L-MP2 PNO cut-off (core)       ...   1.0e-11
                           *** Turning on DIIS ***
LMP2-Iter=   0:  ELMP2= -1.615748556687  DE=   3.1e-02 RMAX=   4.8e-03
LMP2-Iter=   1:  ELMP2= -1.631808874579  DE=   1.6e-02 RMAX=   2.2e-03
LMP2-Iter=   2:  ELMP2= -1.634106221918  DE=   2.3e-03 RMAX=   4.5e-04
LMP2-Iter=   3:  ELMP2= -1.634396508766  DE=   2.9e-04 RMAX=   1.3e-04
LMP2-Iter=   4:  ELMP2= -1.634418481370  DE=   2.2e-05 RMAX=   1.8e-05
LMP2-Iter=   5:  ELMP2= -1.634418039306  DE=   4.4e-07 RMAX=   5.2e-06
LMP2-Iter=   6:  ELMP2= -1.634417931753  DE=   1.1e-07 RMAX=   5.7e-07
LMP2-Iter=   7:  ELMP2= -1.634417907555  DE=   2.4e-08 RMAX=   1.6e-07
LMP2-Iter=   8:  ELMP2= -1.634417914852  DE=   7.3e-09 RMAX=   3.1e-08 => CONVERGED
PASS-2: Formation of Pair natural orbitals
   .... Finished loop over pairs

 PNO Occupation Number Statistics: 
  | Av. % of trace(Dij) retained        ...  98.347620150352
  | sigma^2 in % of trace(Dij) retained ...   7.39e+00
  | Av. % of trace(Di) retained         ...  99.999777039175
  | sigma^2 in % of trace(Di) retained  ...   6.00e-09
 Distributions of % trace(Dij) recovered:
  |       >= 99.9  ...    60 ( 23.1 % of all pairs)
  |   [70.0, 80.0) ...     1 (  0.4 % of all pairs)
  |   [80.0, 90.0) ...     7 (  2.7 % of all pairs)
  |   [90.0, 99.0) ...   124 ( 47.7 % of all pairs)
  |   [99.0, 99.9) ...    68 ( 26.2 % of all pairs)
 Distributions of % trace(Di) recovered :
  |       >= 99.9  ...    24 (100.0 % of all I-pairs )

Making pair pair interaction lists          ... done

                       ===========================
                        198 OF  260 PAIRS ARE KEPT
                       ===========================

Total time spent in the initial guess                 ...    19.133 sec
L-MP2 correlation energy (all non-screened pairs)     ...      -1.634417914852 Eh
L-MP2 PNO error correction                            ...      -0.000022248251 Eh
                                                          --------------------
Initial total L-MP2 energy (non-screened pairs)       ...      -1.634440163103 Eh

Initial PNO correlation energy                        ...      -1.633360382513 Eh
sum of pair energies estimated for screened out pairs ...      -0.000022547783 Eh
sum of MP2 pair energies for pairs that were not kept ...      -0.000303515616 Eh
sum of PNO error estimates for the kept pairs         ...      -0.000807225979 Eh
                                                          --------------------
sum of all corrections                                         -0.001133289379
Initial total correlation energy                               -1.634493671892
Thresholds for map construction and integral transformation for fine MP2 and CCSD(T) calculation:
   TCutMKN   ...     1.0e-03
   TCutDO    ...     5.0e-03
   TCutPairs ...     1.0e-05
   TCutCMO   ...     1.0e-03
   TCutCPAO  ...     1.0e-03

Time for aux screen maps:            0.006
Time for maps after fine MP2:            0.021
-----------------------------
LOCAL RI TRANSFORMATION (IJV)
-----------------------------

Orbital window:       6 to 29
Basis functions:    552 (192 shells)
Aux. functions:    1188 (336 shells)
Use SHARK:           on

Processing maps (0.0 sec)
Average map sizes:
   Aux shells -> MOs(i)           22.0
   Aux shells -> MOs(j)           24.0
   MOs        -> AO shells       185.9

Calculating integrals (1.0 sec, 4.796 MB)
Sorting integrals (0.0 sec, 4.783 MB)
Total time for the integral transformation: 1.1 sec
--------------------------------
LOCAL RI TRANSFORMATION (VABPAO)
--------------------------------

Number of PAOs:     552
Basis functions:    552 (192 shells)
Aux. functions:    1188 (336 shells)
Use SHARK:           on

Processing maps (0.0 sec)
Average map sizes:
   Aux shells -> PAOs            552.0
   PAOs       -> AO shells       192.0

Calculating integrals (3.8 sec, 2761.766 MB)
Finished


-------------------------------------
Pair Pair Term precalculation with     
RI-(ij|mn) and (im|jn) transformation  
ON THE FLY                             
-------------------------------------

   IBatch   1 (of   1)              ... done (   30.025 sec)
Total EXT                           ...          30.025 sec

---------------------
RI-PNO TRANSFORMATION
---------------------

Total Number of PNOs                   ...  6362
Average number of PNOs per pair        ...    32
Maximal number of PNOs per pair        ...    72
   #pairs with  1 -  5 PNOs   :    0
   #pairs with  6 - 10 PNOs   :   35
   #pairs with 11 - 15 PNOs   :   25
   #pairs with 16 - 20 PNOs   :   29
   #pairs with 21 - 25 PNOs   :   17
   #pairs with 26 - 30 PNOs   :   11
   #pairs with 31 - 35 PNOs   :   11
   #pairs with 36 - 40 PNOs   :    5
   #pairs with 41 - 45 PNOs   :    2
   #pairs with 46 - 50 PNOs   :    1
   #pairs with 51 - 55 PNOs   :    5
   #pairs with 56 - 60 PNOs   :   18
   #pairs with 61 - 65 PNOs   :   15
   #pairs with 66 - 70 PNOs   :   23
   #pairs with 71 - 75 PNOs   :    1

Generation of (ij|ab)[P] integrals            ... on
Generation of (ia|bc)[P],(ja|bc)[P] integrals ... on
Storage of 3 and 4 external integrals         ... on
Generation of ALL (ka|bc)[P] integrals        ... on
Keep RI integrals in memory                   ... off

Ibatch:  1 (of  1)
Starting 2-4 index PNO integral generation ... done

Timings:
Total PNO integral transformation time     ...         33.720 sec
Size of the 3-external file                ...       132 MB
Size of the 4-external file                ...      1024 MB
Size of the IKJL file                      ...         0 MB
Size of the all 3-external file            ...      1592 MB
Size of the 1-external file                ...         3 MB

Making pair/pair overlap matrices          ... done (    3.375 sec)
Size of the pair overlap file              ... 267 MB
Redoing the guess amplitudes               ... done (    0.232 sec)

-------------------------
FINAL STARTUP INFORMATION
-------------------------

E(0)                                       ...   -456.494911694
E(L-MP2)                                   ...     -1.634440163
E(L-MP2) including corrections             ...     -1.634493672
Initial E(tot)                             ...   -458.129405365
<T|T>                                      ...      0.349778408
Number of pairs included                   ... 198
Total number of pairs                      ... 300

------------------------------------------------
                  RHF COUPLED CLUSTER ITERATIONS
------------------------------------------------

Number of PNO amplitudes to be optimized   ...       302184
Number of non-PNO amplitudes               ...     53951832
Untruncated number of regular amplitudes   ...     81745200

Iter       E(tot)           E(Corr)          Delta-E          Residual     Time
  0   -458.079141931     -1.583096948      0.051343215      0.016797436  104.00
                           *** Turning on DIIS ***
  1   -458.112435065     -1.616390082     -0.033293134      0.008043087  146.58
  2   -458.145905796     -1.649860813     -0.033470731      0.002368391  186.33
  3   -458.152227102     -1.656182119     -0.006321306      0.001093136  190.17
  4   -458.153932365     -1.657887382     -0.001705263      0.000409626  215.64
  5   -458.154304637     -1.658259654     -0.000372272      0.000163719  206.23
  6   -458.154381571     -1.658336588     -0.000076934      0.000048311  206.70
  7   -458.154389507     -1.658344524     -0.000007936      0.000021040  204.94
               --- The Coupled-Cluster iterations have converged ---

----------------------
COUPLED CLUSTER ENERGY
----------------------

E(0)                                       ...   -456.494911694
E(CORR)(strong-pairs)                      ...     -1.658344524
E(CORR)(weak-pairs)                        ...     -0.001133289
E(CORR)(corrected)                         ...     -1.659477813
E(TOT)                                     ...   -458.154389507
Singles Norm <S|S>**1/2                    ...      0.067626455  
T1 diagnostic                              ...      0.009761038  

------------------
LARGEST AMPLITUDES
------------------
  18-> 30  18-> 30       0.039728
  20-> 30  20-> 30       0.037368
  26-> 30  26-> 30       0.037170
  24-> 30  24-> 30       0.035939
  22-> 30  22-> 30       0.035298
  19-> 31  19-> 31       0.035138
  25-> 30  25-> 30       0.035037
  29-> 30  29-> 30       0.034992
  27-> 31  27-> 31       0.033330
  24-> 37  24-> 37       0.032614
  24-> 30  24-> 37       0.030238
  24-> 37  24-> 30       0.030238
  20-> 30  20-> 37       0.029955
  20-> 37  20-> 30       0.029955
  23-> 31  23-> 31       0.029637
  20-> 37  20-> 37       0.029139


-------------------------------------------
DLPNO BASED TRIPLES CORRECTION
-------------------------------------------

Singles multiplier          ...  1.000000
TCutTNO                     ... 1.000e-09
TCutMP2Pairs                ... 1.000e-06
TCutDOStrong                ... 1.000e-02
TCutMKNStrong               ... 1.000e-02
TCutDOWeak                  ... 2.000e-02
TCutMKNWeak                 ... 1.000e-01

Fragment selection                          .... not used
Fock matrix occ-virt block is zero --> Setting DT_in_Triples to false.
Number of Triples that are to be computed   ...      1449

 . . . . . . . . .
10% done  
20% done  
30% done  
40% done  
50% done  
60% done  
70% done  
80% done  
90% done               (    106.007 sec)
Triples timings:
Total time for T0               ...   120.465 sec
Total time for Iterative (T)    ...     0.000 sec
Total time of overall (T)       ...   125.276 sec

Triples List generation         ...     0.000 sec
TNO generation                  ...    12.552 sec
Pair density generation         ...     0.004 sec
Look up tables                  ...     0.000 sec
Generating 3-index integrals    ...    91.923 sec
  Make 4-ind.int. from 3-ind.int...     3.112 sec
  Projecting amplitudes (D + S) ...     8.111 sec
  Downprojecting integrals      ...     0.001 sec
  Energy contr. (sum over a,b,c)...     0.616 sec
Fitting ET(->0)                 ...     0.000 sec

Everything after 3-index        ...    14.084 sec

Timing details:
 TNO integrals                  ...    94.626 sec
   Reading 3-index integrals    ...     3.785 sec
   Sorting integrals            ...    13.673 sec
       Sorting integrals 1      ...     0.001 sec
       Sorting integrals 2      ...    12.535 sec
       Sorting integrals 3      ...     0.104 sec
       Sorting integrals 4      ...     0.008 sec
       Sorting integrals 5      ...     0.078 sec
       Sorting integrals 6      ...     0.948 sec
   Calculating local VM**-1/2   ...     0.260 sec
   Orthogonal. integrals        ...     0.363 sec
   Multipl. 3-index integrals   ...    76.544 sec
   All concerning IRIab (w/TNO) ...     1.422 sec

 Calculate W0/W1                ...     2.243 sec
 W 3-ext contribution           ...     1.247 sec
 W 3-int contribution           ...     0.357 sec
 Sorting W                      ...     0.581 sec

 V exchange contribution        ...     0.175 sec

 Timings for Triples without generation
     of 3-index integrals       ...    14.083 sec
       0 weak pairs             ...    12.308 sec
       1 weak pair              ...     1.775 sec
       2 weak pairs             ...     0.000 sec
       3 weak pairs             ...     0.000 sec
  Extra time for extrapolation  ...     0.000 sec

Number of Triples   (0, 1, 2, 3 weak pairs; overall):   1032     417       0       0  (  1449)
Number of Atoms     (0, 1, 2, 3 weak pairs; overall):   16.4    16.6     0.0     0.0  (    18)
Number of PAOs      (0, 1, 2, 3 weak pairs; overall):  502.3   510.1     0.0     0.0  (   552)
Number of AuxFcns   (0, 1, 2, 3 weak pairs; overall):  417.3   374.3     0.0     0.0  (  1188)
Number of TNOs      (0, 1, 2, 3 weak pairs         ):   79.2    46.5     0.0     0.0
Aver. Number of NTNO, Atoms, PAOs, AuxFcns / Triples:   1449    69.8    16.5   504.6   404.9

Triples Correction (T)                     ...     -0.053022297
Final correlation energy                   ...     -1.712500110
E(CCSD)                                    ...   -458.154389507
E(CCSD(T))                                 ...   -458.207411804



--------------------------------------------------------------------------------
                                    TIMINGS
--------------------------------------------------------------------------------


Total execution time                   ...     1722.887 sec

Localization of occupied MO's          ...        1.110 sec (  0.1%)
Fock Matrix Formation                  ...       13.089 sec (  0.8%)
Global overlap, Fock, MKN matrices     ...        0.995 sec (  0.1%)
Differential overlap integrals         ...        0.721 sec (  0.0%)
Organizing maps                        ...        0.059 sec (  0.0%)
RI 3-index integral generations        ...        8.725 sec (  0.5%)
RI-PNO integral transformation         ...       81.431 sec (  4.7%)
Initial Guess                          ...       23.022 sec (  1.3%)
DIIS Solver                            ...        8.306 sec (  0.5%)
State Vector Update                    ...        0.023 sec (  0.0%)
Sigma-vector construction              ...     1454.923 sec ( 84.4%)
  <D|H|D>(0-ext)                       ...      207.630 sec ( 14.3% of sigma)
  <D|H|D>(2-ext Fock)                  ...        0.003 sec (  0.0% of sigma)
  <D|H|D>(2-ext)                       ...       49.685 sec (  3.4% of sigma)
  <D|H|D>(4-ext)                       ...        5.320 sec (  0.4% of sigma)
  <D|H|D>(4-ext-corr)                  ...       18.282 sec (  1.3% of sigma)
  CCSD doubles correction              ...       23.405 sec (  1.6% of sigma)
  <S|H|S>                              ...      188.365 sec ( 12.9% of sigma)
  <S|H|D>(1-ext)                       ...        0.571 sec (  0.0% of sigma)
  <D|H|S>(1-ext)                       ...        0.003 sec (  0.0% of sigma)
  <S|H|D>(3-ext)                       ...        0.846 sec (  0.1% of sigma)
  Fock-dressing                        ...      349.780 sec ( 24.0% of sigma)
  Singles amplitudes                   ...      158.960 sec ( 10.9% of sigma)
  (ik|jl)-dressing                     ...      277.952 sec ( 19.1% of sigma)
  (ij|ab),(ia|jb)-dressing             ...      138.461 sec (  9.5% of sigma)
  Pair energies                        ...        0.347 sec (  0.0% of sigma)
Total Time for computing (T)           ...      125.442 sec (  7.3% of ALL)


Maximum memory used throughout the entire MDCI-calculation: 1654.6 MB

-------------------------   --------------------
FINAL SINGLE POINT ENERGY      -458.207411803885
-------------------------   --------------------



--------------------------------------   --------------------
FINAL SINGLE POINT ENERGY (QM/QM2)    -1446.007356513595
--------------------------------------   --------------------


                            ***************************************
                            *     ORCA property calculations      *
                            ***************************************


  WARNING: The energy has been calculated at the MDCI level but the densities
           used in the property calculations are still SCF densities
           MDCI response densities have not been calculated 
           use %mdci Density linearized end
           or  %mdci Density unrelaxed end
           or  %mdci Density orbopt end

                                    ---------------------
                                    Active property flags
                                    ---------------------
   (+) Dipole Moment


------------------------------------------------------------------------------
                       ORCA ELECTRIC PROPERTIES CALCULATION
------------------------------------------------------------------------------

Dipole Moment Calculation                       ... on
Quadrupole Moment Calculation                   ... off
Polarizability Calculation                      ... off
GBWName                                         ... cluster_dlpno_SP.gbw
Electron density                                ... cluster_dlpno_SP.scfp
The origin for moment calculation is the CENTER OF MASS  = (-2.195981, 14.756711 11.822433)

-------------
DIPOLE MOMENT
-------------
                                X             Y             Z
Electronic contribution:     -0.21944       0.61491      -0.31970
Nuclear contribution   :      0.26795      -0.91279      -1.39448
                        -----------------------------------------
Total Dipole Moment    :      0.04851      -0.29788      -1.71418
                        -----------------------------------------
Magnitude (a.u.)       :      1.74055
Magnitude (Debye)      :      4.42412



--------------------
Rotational spectrum 
--------------------
 
Rotational constants in cm-1:     0.055259     0.025440     0.018679 
Rotational constants in MHz :  1656.636425   762.682150   559.995144 

 Dipole components along the rotational axes: 
x,y,z [a.u.] :    -1.490356    -0.429338     0.789947 
x,y,z [Debye]:    -3.788183    -1.091292     2.007886 

 

Timings for individual modules:

Sum of individual times         ...     1827.948 sec (=  30.466 min)
GTO integral calculation        ...        3.492 sec (=   0.058 min)   0.2 %
SCF iterations                  ...       86.369 sec (=   1.439 min)   4.7 %
MDCI module                     ...     1727.301 sec (=  28.788 min)  94.5 %
XTB module                      ...        5.393 sec (=   0.090 min)   0.3 %
ONIOM_Small energy and gradient ...        0.171 sec (=   0.003 min)   0.0 %
ONIOM_Large energy and gradient ...        5.222 sec (=   0.087 min)   0.3 %
                             ****ORCA TERMINATED NORMALLY****
TOTAL RUN TIME: 0 days 0 hours 30 minutes 34 seconds 367 msec
