
                                 *****************
                                 * O   R   C   A *
                                 *****************

                                            #,                                       
                                            ###                                      
                                            ####                                     
                                            #####                                    
                                            ######                                   
                                           ########,                                 
                                     ,,################,,,,,                         
                               ,,#################################,,                 
                          ,,##########################################,,             
                       ,#########################################, ''#####,          
                    ,#############################################,,   '####,        
                  ,##################################################,,,,####,       
                ,###########''''           ''''###############################       
              ,#####''   ,,,,##########,,,,          '''####'''          '####       
            ,##' ,,,,###########################,,,                        '##       
           ' ,,###''''                  '''############,,,                           
         ,,##''                                '''############,,,,        ,,,,,,###''
      ,#''                                            '''#######################'''  
     '                                                          ''''####''''         
             ,#######,   #######,   ,#######,      ##                                
            ,#'     '#,  ##    ##  ,#'     '#,    #''#        ######   ,####,        
            ##       ##  ##   ,#'  ##            #'  '#       #        #'  '#        
            ##       ##  #######   ##           ,######,      #####,   #    #        
            '#,     ,#'  ##    ##  '#,     ,#' ,#      #,         ##   #,  ,#        
             '#######'   ##     ##  '#######'  #'      '#     #####' # '####'        



                  #######################################################
                  #                        -***-                        #
                  #          Department of theory and spectroscopy      #
                  #    Directorship and core code : Frank Neese         #
                  #        Max Planck Institute fuer Kohlenforschung    #
                  #                Kaiser Wilhelm Platz 1               #
                  #                 D-45470 Muelheim/Ruhr               #
                  #                      Germany                        #
                  #                                                     #
                  #                  All rights reserved                #
                  #                        -***-                        #
                  #######################################################


                         Program Version 5.0.2 -  RELEASE  -


 With contributions from (in alphabetic order):
   Daniel Aravena         : Magnetic Suceptibility
   Michael Atanasov       : Ab Initio Ligand Field Theory (pilot matlab implementation)
   Alexander A. Auer      : GIAO ZORA, VPT2 properties, NMR spectrum
   Ute Becker             : Parallelization
   Giovanni Bistoni       : ED, misc. LED, open-shell LED, HFLD
   Martin Brehm           : Molecular dynamics
   Dmytro Bykov           : SCF Hessian
   Vijay G. Chilkuri      : MRCI spin determinant printing, contributions to CSF-ICE
   Dipayan Datta          : RHF DLPNO-CCSD density
   Achintya Kumar Dutta   : EOM-CC, STEOM-CC
   Dmitry Ganyushin       : Spin-Orbit,Spin-Spin,Magnetic field MRCI
   Miquel Garcia          : C-PCM and meta-GGA Hessian, CC/C-PCM, Gaussian charge scheme
   Yang Guo               : DLPNO-NEVPT2, F12-NEVPT2, CIM, IAO-localization
   Andreas Hansen         : Spin unrestricted coupled pair/coupled cluster methods
   Benjamin Helmich-Paris : MC-RPA, TRAH-SCF, COSX integrals
   Lee Huntington         : MR-EOM, pCC
   Robert Izsak           : Overlap fitted RIJCOSX, COSX-SCS-MP3, EOM
   Marcus Kettner         : VPT2
   Christian Kollmar      : KDIIS, OOCD, Brueckner-CCSD(T), CCSD density, CASPT2, CASPT2-K
   Simone Kossmann        : Meta GGA functionals, TD-DFT gradient, OOMP2, MP2 Hessian
   Martin Krupicka        : Initial AUTO-CI
   Lucas Lang             : DCDCAS
   Marvin Lechner         : AUTO-CI (C++ implementation), FIC-MRCC
   Dagmar Lenk            : GEPOL surface, SMD
   Dimitrios Liakos       : Extrapolation schemes; Compound Job, initial MDCI parallelization
   Dimitrios Manganas     : Further ROCIS development; embedding schemes
   Dimitrios Pantazis     : SARC Basis sets
   Anastasios Papadopoulos: AUTO-CI, single reference methods and gradients
   Taras Petrenko         : DFT Hessian,TD-DFT gradient, ASA, ECA, R-Raman, ABS, FL, XAS/XES, NRVS
   Peter Pinski           : DLPNO-MP2, DLPNO-MP2 Gradient
   Christoph Reimann      : Effective Core Potentials
   Marius Retegan         : Local ZFS, SOC
   Christoph Riplinger    : Optimizer, TS searches, QM/MM, DLPNO-CCSD(T), (RO)-DLPNO pert. Triples
   Tobias Risthaus        : Range-separated hybrids, TD-DFT gradient, RPA, STAB
   Michael Roemelt        : Original ROCIS implementation
   Masaaki Saitow         : Open-shell DLPNO-CCSD energy and density
   Barbara Sandhoefer     : DKH picture change effects
   Avijit Sen             : IP-ROCIS
   Kantharuban Sivalingam : CASSCF convergence, NEVPT2, FIC-MRCI
   Bernardo de Souza      : ESD, SOC TD-DFT
   Georgi Stoychev        : AutoAux, RI-MP2 NMR, DLPNO-MP2 response
   Willem Van den Heuvel  : Paramagnetic NMR
   Boris Wezisla          : Elementary symmetry handling
   Frank Wennmohs         : Technical directorship


 We gratefully acknowledge several colleagues who have allowed us to
 interface, adapt or use parts of their codes:
   Stefan Grimme, W. Hujo, H. Kruse, P. Pracht,  : VdW corrections, initial TS optimization,
                  C. Bannwarth, S. Ehlert          DFT functionals, gCP, sTDA/sTD-DF
   Ed Valeev, F. Pavosevic, A. Kumar             : LibInt (2-el integral package), F12 methods
   Garnet Chan, S. Sharma, J. Yang, R. Olivares  : DMRG
   Ulf Ekstrom                                   : XCFun DFT Library
   Mihaly Kallay                                 : mrcc  (arbitrary order and MRCC methods)
   Jiri Pittner, Ondrej Demel                    : Mk-CCSD
   Frank Weinhold                                : gennbo (NPA and NBO analysis)
   Christopher J. Cramer and Donald G. Truhlar   : smd solvation model
   Lars Goerigk                                  : TD-DFT with DH, B97 family of functionals
   V. Asgeirsson, H. Jonsson                     : NEB implementation
   FAccTs GmbH                                   : IRC, NEB, NEB-TS, DLPNO-Multilevel, CI-OPT
                                                   MM, QMMM, 2- and 3-layer-ONIOM, Crystal-QMMM,
                                                   LR-CPCM, SF, NACMEs, symmetry and pop. for TD-DFT,
                                                   nearIR, NL-DFT gradient (VV10), updates on ESD,
                                                   ML-optimized integration grids
   S Lehtola, MJT Oliveira, MAL Marques          : LibXC Library
   Liviu Ungur et al                             : ANISO software


 Your calculation uses the libint2 library for the computation of 2-el integrals
 For citations please refer to: http://libint.valeyev.net

 Your ORCA version has been built with support for libXC version: 5.1.0
 For citations please refer to: https://tddft.org/programs/libxc/

 This ORCA versions uses:
   CBLAS   interface :  Fast vector & matrix operations
   LAPACKE interface :  Fast linear algebra routines
   SCALAPACK package :  Parallel linear algebra routines
   Shared memory     :  Shared parallel matrices
   BLAS/LAPACK       :  OpenBLAS 0.3.15  USE64BITINT DYNAMIC_ARCH NO_AFFINITY Haswell SINGLE_THREADED
        Core in use  :  Haswell
   Copyright (c) 2011-2014, The OpenBLAS Project


================================================================================

----- Orbital basis set information -----
Your calculation utilizes the basis: aug-cc-pVTZ 
    H, B-Ne : Obtained from the ccRepo (grant-hill.group.shef.ac.uk/ccrepo) Feb. 2017
              R. A. Kendall, T. H. Dunning, Jr., R. J. Harrison, J. Chem. Phys. 96, 6796 (1992)
         He : Obtained from the ccRepo (grant-hill.group.shef.ac.uk/ccrepo) Feb. 2017
              D. E. Woon, T. H. Dunning, Jr., J. Chem. Phys. 100, 2975 (1994)
  Li-Be, Na : Obtained from the ccRepo (grant-hill.group.shef.ac.uk/ccrepo) Feb. 2017
              B. P. Prascher, D. E. Woon, K. A. Peterson, T. H. Dunning, Jr., A. K. Wilson, Theor. Chem. Acc. 128, 69 (2011)
         Mg : Obtained from the Peterson Research Group Website (tyr0.chem.wsu.edu/~kipeters) Feb. 2017
              B. P. Prascher, D. E. Woon, K. A. Peterson, T. H. Dunning, Jr., A. K. Wilson, Theor. Chem. Acc. 128, 69 (2011)
      Al-Ar : Obtained from the ccRepo (grant-hill.group.shef.ac.uk/ccrepo) Feb. 2017
              D. E. Woon, T. H. Dunning, Jr., J. Chem. Phys. 98, 1358 (1993)
      Sc-Zn : Obtained from the ccRepo (grant-hill.group.shef.ac.uk/ccrepo) Feb. 2017
              N. B. Balabanov, K. A. Peterson, J. Chem. Phys. 123, 064107 (2005)
              N. B. Balabanov, K. A. Peterson, J. Chem. Phys. 125, 074110 (2006)
      Ga-Kr : Obtained from the ccRepo (grant-hill.group.shef.ac.uk/ccrepo) Feb. 2017
              A. K. Wilson, D. E. Woon, K. A. Peterson, T. H. Dunning, Jr., J. Chem. Phys. 110, 7667 (1999)
     Ag, Au : Obtained from the Peterson Research Group Website (tyr0.chem.wsu.edu/~kipeters) Feb. 2017
              K. A. Peterson, C. Puzzarini, Theor. Chem. Acc. 114, 283 (2005)

----- AuxC basis set information -----
Your calculation utilizes the auxiliary basis: aug-cc-pVTZ/C 
  H-He, B-F, Al-Ar, Ga-Kr : Obtained from the EMSL Basis Set Exchange (bse.pnl.gov) Feb. 2017
                            F. Weigend, A. Kohn, C. Hattig, J. Chem. Phys. 116, 3175 (2002)
                   Be, Mg : Obtained from the TURBOMOLE 7.0 basis set library
                            C. Haettig, Phys. Chem. Chem. Phys. 7, 59 (2005)
                       Ne : Obtained from the EMSL Basis Set Exchange (bse.pnl.gov) Feb. 2017
                            C. Haettig, Phys. Chem. Chem. Phys. 7, 59 (2005)
                            F. Weigend, A. Kohn, C. Hattig, J. Chem. Phys. 116, 3175 (2002)
                    Sc-Zn : Obtained from the EMSL Basis Set Exchange (bse.pnl.gov) Feb. 2017
                            J. G. Hill, J. A. Platts, J. Chem. Phys. 128, 044104 (2008)

================================================================================
                                        WARNINGS
                       Please study these warnings very carefully!
================================================================================


WARNING: Post HF methods need fully converged wavefunctions
  ===> : Setting SCFConvForced true
         You can overwrite this default with %scf ConvForced false 


WARNING: MDCI localization with Augmented Hessian Foster-Boys
  ===> : Switching off randomization!

INFO   : the flag for use of the SHARK integral package has been found!

================================================================================

----- Orbital basis set information -----
Your calculation utilizes the basis: aug-cc-pVTZ 
    H, B-Ne : Obtained from the ccRepo (grant-hill.group.shef.ac.uk/ccrepo) Feb. 2017
              R. A. Kendall, T. H. Dunning, Jr., R. J. Harrison, J. Chem. Phys. 96, 6796 (1992)
         He : Obtained from the ccRepo (grant-hill.group.shef.ac.uk/ccrepo) Feb. 2017
              D. E. Woon, T. H. Dunning, Jr., J. Chem. Phys. 100, 2975 (1994)
  Li-Be, Na : Obtained from the ccRepo (grant-hill.group.shef.ac.uk/ccrepo) Feb. 2017
              B. P. Prascher, D. E. Woon, K. A. Peterson, T. H. Dunning, Jr., A. K. Wilson, Theor. Chem. Acc. 128, 69 (2011)
         Mg : Obtained from the Peterson Research Group Website (tyr0.chem.wsu.edu/~kipeters) Feb. 2017
              B. P. Prascher, D. E. Woon, K. A. Peterson, T. H. Dunning, Jr., A. K. Wilson, Theor. Chem. Acc. 128, 69 (2011)
      Al-Ar : Obtained from the ccRepo (grant-hill.group.shef.ac.uk/ccrepo) Feb. 2017
              D. E. Woon, T. H. Dunning, Jr., J. Chem. Phys. 98, 1358 (1993)
      Sc-Zn : Obtained from the ccRepo (grant-hill.group.shef.ac.uk/ccrepo) Feb. 2017
              N. B. Balabanov, K. A. Peterson, J. Chem. Phys. 123, 064107 (2005)
              N. B. Balabanov, K. A. Peterson, J. Chem. Phys. 125, 074110 (2006)
      Ga-Kr : Obtained from the ccRepo (grant-hill.group.shef.ac.uk/ccrepo) Feb. 2017
              A. K. Wilson, D. E. Woon, K. A. Peterson, T. H. Dunning, Jr., J. Chem. Phys. 110, 7667 (1999)
     Ag, Au : Obtained from the Peterson Research Group Website (tyr0.chem.wsu.edu/~kipeters) Feb. 2017
              K. A. Peterson, C. Puzzarini, Theor. Chem. Acc. 114, 283 (2005)

----- AuxC basis set information -----
Your calculation utilizes the auxiliary basis: aug-cc-pVTZ/C 
  H-He, B-F, Al-Ar, Ga-Kr : Obtained from the EMSL Basis Set Exchange (bse.pnl.gov) Feb. 2017
                            F. Weigend, A. Kohn, C. Hattig, J. Chem. Phys. 116, 3175 (2002)
                   Be, Mg : Obtained from the TURBOMOLE 7.0 basis set library
                            C. Haettig, Phys. Chem. Chem. Phys. 7, 59 (2005)
                       Ne : Obtained from the EMSL Basis Set Exchange (bse.pnl.gov) Feb. 2017
                            C. Haettig, Phys. Chem. Chem. Phys. 7, 59 (2005)
                            F. Weigend, A. Kohn, C. Hattig, J. Chem. Phys. 116, 3175 (2002)
                    Sc-Zn : Obtained from the EMSL Basis Set Exchange (bse.pnl.gov) Feb. 2017
                            J. G. Hill, J. A. Platts, J. Chem. Phys. 128, 044104 (2008)

================================================================================
                                        WARNINGS
                       Please study these warnings very carefully!
================================================================================


WARNING: MOInp is set but Guess=PModel. MOInp will be ignored!
         To read the initial guess from a file you must also specify
         'MORead' in the simple input or 'Guess MORead' in the %scf block


WARNING: MDCI localization with Augmented Hessian Foster-Boys
  ===> : Switching off randomization!

INFO   : the flag for use of the SHARK integral package has been found!

================================================================================

----- Orbital basis set information -----
Your calculation utilizes the basis: aug-cc-pVTZ 
    H, B-Ne : Obtained from the ccRepo (grant-hill.group.shef.ac.uk/ccrepo) Feb. 2017
              R. A. Kendall, T. H. Dunning, Jr., R. J. Harrison, J. Chem. Phys. 96, 6796 (1992)
         He : Obtained from the ccRepo (grant-hill.group.shef.ac.uk/ccrepo) Feb. 2017
              D. E. Woon, T. H. Dunning, Jr., J. Chem. Phys. 100, 2975 (1994)
  Li-Be, Na : Obtained from the ccRepo (grant-hill.group.shef.ac.uk/ccrepo) Feb. 2017
              B. P. Prascher, D. E. Woon, K. A. Peterson, T. H. Dunning, Jr., A. K. Wilson, Theor. Chem. Acc. 128, 69 (2011)
         Mg : Obtained from the Peterson Research Group Website (tyr0.chem.wsu.edu/~kipeters) Feb. 2017
              B. P. Prascher, D. E. Woon, K. A. Peterson, T. H. Dunning, Jr., A. K. Wilson, Theor. Chem. Acc. 128, 69 (2011)
      Al-Ar : Obtained from the ccRepo (grant-hill.group.shef.ac.uk/ccrepo) Feb. 2017
              D. E. Woon, T. H. Dunning, Jr., J. Chem. Phys. 98, 1358 (1993)
      Sc-Zn : Obtained from the ccRepo (grant-hill.group.shef.ac.uk/ccrepo) Feb. 2017
              N. B. Balabanov, K. A. Peterson, J. Chem. Phys. 123, 064107 (2005)
              N. B. Balabanov, K. A. Peterson, J. Chem. Phys. 125, 074110 (2006)
      Ga-Kr : Obtained from the ccRepo (grant-hill.group.shef.ac.uk/ccrepo) Feb. 2017
              A. K. Wilson, D. E. Woon, K. A. Peterson, T. H. Dunning, Jr., J. Chem. Phys. 110, 7667 (1999)
     Ag, Au : Obtained from the Peterson Research Group Website (tyr0.chem.wsu.edu/~kipeters) Feb. 2017
              K. A. Peterson, C. Puzzarini, Theor. Chem. Acc. 114, 283 (2005)

----- AuxC basis set information -----
Your calculation utilizes the auxiliary basis: aug-cc-pVTZ/C 
  H-He, B-F, Al-Ar, Ga-Kr : Obtained from the EMSL Basis Set Exchange (bse.pnl.gov) Feb. 2017
                            F. Weigend, A. Kohn, C. Hattig, J. Chem. Phys. 116, 3175 (2002)
                   Be, Mg : Obtained from the TURBOMOLE 7.0 basis set library
                            C. Haettig, Phys. Chem. Chem. Phys. 7, 59 (2005)
                       Ne : Obtained from the EMSL Basis Set Exchange (bse.pnl.gov) Feb. 2017
                            C. Haettig, Phys. Chem. Chem. Phys. 7, 59 (2005)
                            F. Weigend, A. Kohn, C. Hattig, J. Chem. Phys. 116, 3175 (2002)
                    Sc-Zn : Obtained from the EMSL Basis Set Exchange (bse.pnl.gov) Feb. 2017
                            J. G. Hill, J. A. Platts, J. Chem. Phys. 128, 044104 (2008)

================================================================================
                                        WARNINGS
                       Please study these warnings very carefully!
================================================================================


WARNING: MOInp is set but Guess=PModel. MOInp will be ignored!
         To read the initial guess from a file you must also specify
         'MORead' in the simple input or 'Guess MORead' in the %scf block


WARNING: MDCI localization with Augmented Hessian Foster-Boys
  ===> : Switching off randomization!

INFO   : the flag for use of the SHARK integral package has been found!

================================================================================

----- Orbital basis set information -----
Your calculation utilizes the basis: aug-cc-pVTZ 
    H, B-Ne : Obtained from the ccRepo (grant-hill.group.shef.ac.uk/ccrepo) Feb. 2017
              R. A. Kendall, T. H. Dunning, Jr., R. J. Harrison, J. Chem. Phys. 96, 6796 (1992)
         He : Obtained from the ccRepo (grant-hill.group.shef.ac.uk/ccrepo) Feb. 2017
              D. E. Woon, T. H. Dunning, Jr., J. Chem. Phys. 100, 2975 (1994)
  Li-Be, Na : Obtained from the ccRepo (grant-hill.group.shef.ac.uk/ccrepo) Feb. 2017
              B. P. Prascher, D. E. Woon, K. A. Peterson, T. H. Dunning, Jr., A. K. Wilson, Theor. Chem. Acc. 128, 69 (2011)
         Mg : Obtained from the Peterson Research Group Website (tyr0.chem.wsu.edu/~kipeters) Feb. 2017
              B. P. Prascher, D. E. Woon, K. A. Peterson, T. H. Dunning, Jr., A. K. Wilson, Theor. Chem. Acc. 128, 69 (2011)
      Al-Ar : Obtained from the ccRepo (grant-hill.group.shef.ac.uk/ccrepo) Feb. 2017
              D. E. Woon, T. H. Dunning, Jr., J. Chem. Phys. 98, 1358 (1993)
      Sc-Zn : Obtained from the ccRepo (grant-hill.group.shef.ac.uk/ccrepo) Feb. 2017
              N. B. Balabanov, K. A. Peterson, J. Chem. Phys. 123, 064107 (2005)
              N. B. Balabanov, K. A. Peterson, J. Chem. Phys. 125, 074110 (2006)
      Ga-Kr : Obtained from the ccRepo (grant-hill.group.shef.ac.uk/ccrepo) Feb. 2017
              A. K. Wilson, D. E. Woon, K. A. Peterson, T. H. Dunning, Jr., J. Chem. Phys. 110, 7667 (1999)
     Ag, Au : Obtained from the Peterson Research Group Website (tyr0.chem.wsu.edu/~kipeters) Feb. 2017
              K. A. Peterson, C. Puzzarini, Theor. Chem. Acc. 114, 283 (2005)

----- AuxC basis set information -----
Your calculation utilizes the auxiliary basis: aug-cc-pVTZ/C 
  H-He, B-F, Al-Ar, Ga-Kr : Obtained from the EMSL Basis Set Exchange (bse.pnl.gov) Feb. 2017
                            F. Weigend, A. Kohn, C. Hattig, J. Chem. Phys. 116, 3175 (2002)
                   Be, Mg : Obtained from the TURBOMOLE 7.0 basis set library
                            C. Haettig, Phys. Chem. Chem. Phys. 7, 59 (2005)
                       Ne : Obtained from the EMSL Basis Set Exchange (bse.pnl.gov) Feb. 2017
                            C. Haettig, Phys. Chem. Chem. Phys. 7, 59 (2005)
                            F. Weigend, A. Kohn, C. Hattig, J. Chem. Phys. 116, 3175 (2002)
                    Sc-Zn : Obtained from the EMSL Basis Set Exchange (bse.pnl.gov) Feb. 2017
                            J. G. Hill, J. A. Platts, J. Chem. Phys. 128, 044104 (2008)

================================================================================
                                        WARNINGS
                       Please study these warnings very carefully!
================================================================================


WARNING: MOInp is set but Guess=PModel. MOInp will be ignored!
         To read the initial guess from a file you must also specify
         'MORead' in the simple input or 'Guess MORead' in the %scf block


WARNING: MDCI localization with Augmented Hessian Foster-Boys
  ===> : Switching off randomization!

INFO   : the flag for use of the SHARK integral package has been found!

================================================================================

----- Orbital basis set information -----
Your calculation utilizes the basis: aug-cc-pVTZ 
    H, B-Ne : Obtained from the ccRepo (grant-hill.group.shef.ac.uk/ccrepo) Feb. 2017
              R. A. Kendall, T. H. Dunning, Jr., R. J. Harrison, J. Chem. Phys. 96, 6796 (1992)
         He : Obtained from the ccRepo (grant-hill.group.shef.ac.uk/ccrepo) Feb. 2017
              D. E. Woon, T. H. Dunning, Jr., J. Chem. Phys. 100, 2975 (1994)
  Li-Be, Na : Obtained from the ccRepo (grant-hill.group.shef.ac.uk/ccrepo) Feb. 2017
              B. P. Prascher, D. E. Woon, K. A. Peterson, T. H. Dunning, Jr., A. K. Wilson, Theor. Chem. Acc. 128, 69 (2011)
         Mg : Obtained from the Peterson Research Group Website (tyr0.chem.wsu.edu/~kipeters) Feb. 2017
              B. P. Prascher, D. E. Woon, K. A. Peterson, T. H. Dunning, Jr., A. K. Wilson, Theor. Chem. Acc. 128, 69 (2011)
      Al-Ar : Obtained from the ccRepo (grant-hill.group.shef.ac.uk/ccrepo) Feb. 2017
              D. E. Woon, T. H. Dunning, Jr., J. Chem. Phys. 98, 1358 (1993)
      Sc-Zn : Obtained from the ccRepo (grant-hill.group.shef.ac.uk/ccrepo) Feb. 2017
              N. B. Balabanov, K. A. Peterson, J. Chem. Phys. 123, 064107 (2005)
              N. B. Balabanov, K. A. Peterson, J. Chem. Phys. 125, 074110 (2006)
      Ga-Kr : Obtained from the ccRepo (grant-hill.group.shef.ac.uk/ccrepo) Feb. 2017
              A. K. Wilson, D. E. Woon, K. A. Peterson, T. H. Dunning, Jr., J. Chem. Phys. 110, 7667 (1999)
     Ag, Au : Obtained from the Peterson Research Group Website (tyr0.chem.wsu.edu/~kipeters) Feb. 2017
              K. A. Peterson, C. Puzzarini, Theor. Chem. Acc. 114, 283 (2005)

----- AuxC basis set information -----
Your calculation utilizes the auxiliary basis: aug-cc-pVTZ/C 
  H-He, B-F, Al-Ar, Ga-Kr : Obtained from the EMSL Basis Set Exchange (bse.pnl.gov) Feb. 2017
                            F. Weigend, A. Kohn, C. Hattig, J. Chem. Phys. 116, 3175 (2002)
                   Be, Mg : Obtained from the TURBOMOLE 7.0 basis set library
                            C. Haettig, Phys. Chem. Chem. Phys. 7, 59 (2005)
                       Ne : Obtained from the EMSL Basis Set Exchange (bse.pnl.gov) Feb. 2017
                            C. Haettig, Phys. Chem. Chem. Phys. 7, 59 (2005)
                            F. Weigend, A. Kohn, C. Hattig, J. Chem. Phys. 116, 3175 (2002)
                    Sc-Zn : Obtained from the EMSL Basis Set Exchange (bse.pnl.gov) Feb. 2017
                            J. G. Hill, J. A. Platts, J. Chem. Phys. 128, 044104 (2008)

================================================================================
                                        WARNINGS
                       Please study these warnings very carefully!
================================================================================


WARNING: MOInp is set but Guess=PModel. MOInp will be ignored!
         To read the initial guess from a file you must also specify
         'MORead' in the simple input or 'Guess MORead' in the %scf block


WARNING: MDCI localization with Augmented Hessian Foster-Boys
  ===> : Switching off randomization!

INFO   : the flag for use of the SHARK integral package has been found!

================================================================================
                                       INPUT FILE
================================================================================
NAME = CP.inp
|  1> #------------------------------------------------------
|  2> # After the Orca calculation you will get two inter-
|  3> # action energies at the end of the output file. The
|  4> # difference is the negative BSSE.
|  5> #
|  6> # The script will set the orbital guess PModel for 
|  7> # jobs 2-5 since Orca will try to use the .gbw-files of
|  8> # the earlier calculations which does not work for jobs
|  9> # 2 and 3 and does not help for jobs 4 and 5.
| 10> #------------------------------------------------------
| 11> #
| 12> #-------------------------
| 13> #     First the dimer
| 14> #-------------------------
| 15> 
| 16> %id "dimer"
| 17> ! DLPNO-CCSD(T) aug-cc-pVTZ aug-cc-pVTZ/C TightPNO
| 18> %maxcore 2000
| 19> %pal
| 20> nprocs 28
| 21> end
| 22> 
| 23> * xyz 0 1
| 24> H    -0.804062     6.340113     4.888402 
| 25> O    -1.378747     6.933561     5.445671 
| 26> H    -1.412110     7.795920     4.959173 
| 27> H    -1.908145     8.974657     3.345545 
| 28> O    -1.648145     9.297246     4.238129 
| 29> H    -2.511666     9.328457     4.717779 
| 30> H    -0.103643     5.827665     10.524840 
| 31> O    -0.828873     6.460308     10.542123 
| 32> H    -0.805058     6.863443     9.658288 
| 33> H    -3.483406     8.886433     6.595681 
| 34> O    -3.925177     8.866311     5.725402 
| 35> H    -4.083589     7.924209     5.541347 
| 36> H     0.579883     7.278753     7.496314 
| 37> O    -0.353610     7.304994     7.766540 
| 38> H    -0.807781     7.168631     6.867484 
| 39> H     0.437110     8.741559     4.172831 
| 40> O     1.092041     8.070323     3.953583 
| 41> H     1.295727     7.585341     4.777675 
| 42> C    -1.868207     10.737395     7.827669 
| 43> O    -2.262538     9.382700     8.014584 
| 44> H    -2.772424     11.338518     7.793177 
| 45> H    -1.462500     8.828674     7.980387 
| 46> H    -1.248826     11.091164     8.655671 
| 47> H    -1.324497     10.881085     6.891201 
| 48> *
| 49> 
| 50> #--------------------------
| 51> #   Now the fragments at
| 52> #      dimer-geometry 
| 53> #-------------------------
| 54> 
| 55> $new_job
| 56> %id "fragment"
| 57> %scf guess PModel end
| 58> ! DLPNO-CCSD(T) aug-cc-pVTZ aug-cc-pVTZ/C TightPNO
| 59> %maxcore 2000
| 60> %pal
| 61> nprocs 28
| 62> end
| 63> 
| 64> * xyz 0 1
| 65> H    -0.804062     6.340113     4.888402 
| 66> O    -1.378747     6.933561     5.445671 
| 67> H    -1.412110     7.795920     4.959173 
| 68> H    -1.908145     8.974657     3.345545 
| 69> O    -1.648145     9.297246     4.238129 
| 70> H    -2.511666     9.328457     4.717779 
| 71> H    -0.103643     5.827665     10.524840 
| 72> O    -0.828873     6.460308     10.542123 
| 73> H    -0.805058     6.863443     9.658288 
| 74> H    -3.483406     8.886433     6.595681 
| 75> O    -3.925177     8.866311     5.725402 
| 76> H    -4.083589     7.924209     5.541347 
| 77> H     0.579883     7.278753     7.496314 
| 78> O    -0.353610     7.304994     7.766540 
| 79> H    -0.807781     7.168631     6.867484 
| 80> H     0.437110     8.741559     4.172831 
| 81> O     1.092041     8.070323     3.953583 
| 82> H     1.295727     7.585341     4.777675 
| 83> *
| 84> 
| 85> $new_job
| 86> %id "fragment"
| 87> %scf guess PModel end
| 88> ! DLPNO-CCSD(T) aug-cc-pVTZ aug-cc-pVTZ/C TightPNO
| 89> %maxcore 2000
| 90> %pal
| 91> nprocs 6
| 92> end
| 93> 
| 94> * xyz 0 1
| 95> C    -1.868207     10.737395     7.827669 
| 96> O    -2.262538     9.382700     8.014584 
| 97> H    -2.772424     11.338518     7.793177 
| 98> H    -1.462500     8.828674     7.980387 
| 99> H    -1.248826     11.091164     8.655671 
|100> H    -1.324497     10.881085     6.891201 
|101> *
|102> 
|103> #--------------------------
|104> #   Now the fragments at
|105> #   dimer-geometry with  
|106> #     the dimer-basis
|107> #-------------------------
|108> 
|109> $new_job
|110> %id "ghost"
|111> %scf guess PModel end
|112> ! DLPNO-CCSD(T) aug-cc-pVTZ aug-cc-pVTZ/C TightPNO
|113> %maxcore 2000
|114> %pal
|115> nprocs 28
|116> end
|117> 
|118> * xyz 0 1
|119> H         -0.804062     6.340113     4.888402 
|120> O         -1.378747     6.933561     5.445671 
|121> H         -1.412110     7.795920     4.959173 
|122> H         -1.908145     8.974657     3.345545 
|123> O         -1.648145     9.297246     4.238129 
|124> H         -2.511666     9.328457     4.717779 
|125> H         -0.103643     5.827665     10.524840 
|126> O         -0.828873     6.460308     10.542123 
|127> H         -0.805058     6.863443     9.658288 
|128> H         -3.483406     8.886433     6.595681 
|129> O         -3.925177     8.866311     5.725402 
|130> H         -4.083589     7.924209     5.541347 
|131> H          0.579883     7.278753     7.496314 
|132> O         -0.353610     7.304994     7.766540 
|133> H         -0.807781     7.168631     6.867484 
|134> H          0.437110     8.741559     4.172831 
|135> O          1.092041     8.070323     3.953583 
|136> H          1.295727     7.585341     4.777675 
|137> C :       -1.868207     10.737395     7.827669 
|138> O :       -2.262538     9.382700     8.014584 
|139> H :       -2.772424     11.338518     7.793177 
|140> H :       -1.462500     8.828674     7.980387 
|141> H :       -1.248826     11.091164     8.655671 
|142> H :       -1.324497     10.881085     6.891201 
|143> *
|144> 
|145> $new_job
|146> %id "ghost"
|147> %scf guess PModel end
|148> ! DLPNO-CCSD(T) aug-cc-pVTZ aug-cc-pVTZ/C TightPNO
|149> %maxcore 2000
|150> %pal
|151> nprocs 6
|152> end
|153> 
|154> * xyz 0 1
|155> H :       -0.804062     6.340113     4.888402 
|156> O :       -1.378747     6.933561     5.445671 
|157> H :       -1.412110     7.795920     4.959173 
|158> H :       -1.908145     8.974657     3.345545 
|159> O :       -1.648145     9.297246     4.238129 
|160> H :       -2.511666     9.328457     4.717779 
|161> H :       -0.103643     5.827665     10.524840 
|162> O :       -0.828873     6.460308     10.542123 
|163> H :       -0.805058     6.863443     9.658288 
|164> H :       -3.483406     8.886433     6.595681 
|165> O :       -3.925177     8.866311     5.725402 
|166> H :       -4.083589     7.924209     5.541347 
|167> H :        0.579883     7.278753     7.496314 
|168> O :       -0.353610     7.304994     7.766540 
|169> H :       -0.807781     7.168631     6.867484 
|170> H :        0.437110     8.741559     4.172831 
|171> O :        1.092041     8.070323     3.953583 
|172> H :        1.295727     7.585341     4.777675 
|173> C         -1.868207     10.737395     7.827669 
|174> O         -2.262538     9.382700     8.014584 
|175> H         -2.772424     11.338518     7.793177 
|176> H         -1.462500     8.828674     7.980387 
|177> H         -1.248826     11.091164     8.655671 
|178> H         -1.324497     10.881085     6.891201 
|179> *
|180> 
|181> 
|182>                          ****END OF INPUT****
================================================================================


                 $$$$$$$$$$$$$$$$$$$$$$$$$$$$$$$$$$$$$$$$$$$$$$ 
                 $ THERE ARE  5 JOBS TO BE PROCESSED THIS RUN $
                 $$$$$$$$$$$$$$$$$$$$$$$$$$$$$$$$$$$$$$$$$$$$$$ 




                 $$$$$$$$$$$$$$$$  JOB NUMBER  1 $$$$$$$$$$$$$$


                       ****************************
                       * Single Point Calculation *
                       ****************************

---------------------------------
CARTESIAN COORDINATES (ANGSTROEM)
---------------------------------
  H     -0.804062    6.340113    4.888402
  O     -1.378747    6.933561    5.445671
  H     -1.412110    7.795920    4.959173
  H     -1.908145    8.974657    3.345545
  O     -1.648145    9.297246    4.238129
  H     -2.511666    9.328457    4.717779
  H     -0.103643    5.827665   10.524840
  O     -0.828873    6.460308   10.542123
  H     -0.805058    6.863443    9.658288
  H     -3.483406    8.886433    6.595681
  O     -3.925177    8.866311    5.725402
  H     -4.083589    7.924209    5.541347
  H      0.579883    7.278753    7.496314
  O     -0.353610    7.304994    7.766540
  H     -0.807781    7.168631    6.867484
  H      0.437110    8.741559    4.172831
  O      1.092041    8.070323    3.953583
  H      1.295727    7.585341    4.777675
  C     -1.868207   10.737395    7.827669
  O     -2.262538    9.382700    8.014584
  H     -2.772424   11.338518    7.793177
  H     -1.462500    8.828674    7.980387
  H     -1.248826   11.091164    8.655671
  H     -1.324497   10.881085    6.891201

----------------------------
CARTESIAN COORDINATES (A.U.)
----------------------------
  NO LB      ZA    FRAG     MASS         X           Y           Z
   0 H     1.0000    0     1.008   -1.519457   11.981077    9.237741
   1 O     8.0000    0    15.999   -2.605454   13.102531   10.290827
   2 H     1.0000    0     1.008   -2.668501   14.732154    9.371479
   3 H     1.0000    0     1.008   -3.605871   16.959644    6.322164
   4 O     8.0000    0    15.999   -3.114543   17.569249    8.008903
   5 H     1.0000    0     1.008   -4.746361   17.628229    8.915310
   6 H     1.0000    0     1.008   -0.195857   11.012691   19.889065
   7 O     8.0000    0    15.999   -1.566343   12.208213   19.921725
   8 H     1.0000    0     1.008   -1.521339   12.970028   18.251519
   9 H     1.0000    0     1.008   -6.582683   16.792925   12.464031
  10 O     8.0000    0    15.999   -7.417510   16.754900   10.819442
  11 H     1.0000    0     1.008   -7.716865   14.974585   10.471628
  12 H     1.0000    0     1.008    1.095820   13.754850   14.165980
  13 O     8.0000    0    15.999   -0.668226   13.804438   14.676634
  14 H     1.0000    0     1.008   -1.526485   13.546749   12.977664
  15 H     1.0000    0     1.008    0.826018   16.519152    7.885508
  16 O     8.0000    0    15.999    2.063658   15.250700    7.471189
  17 H     1.0000    0     1.008    2.448569   14.334217    9.028497
  18 C     6.0000    0    12.011   -3.530400   20.290736   14.792151
  19 O     8.0000    0    15.999   -4.275577   17.730733   15.145369
  20 H     1.0000    0     1.008   -5.239122   21.426694   14.726970
  21 H     1.0000    0     1.008   -2.763724   16.683776   15.080746
  22 H     1.0000    0     1.008   -2.359939   20.959262   16.356848
  23 H     1.0000    0     1.008   -2.502937   20.562271   13.022483

--------------------------------
INTERNAL COORDINATES (ANGSTROEM)
--------------------------------
 H      0   0   0     0.000000000000     0.00000000     0.00000000
 O      1   0   0     0.996489897736     0.00000000     0.00000000
 H      2   1   0     0.990684833160   105.25973456     0.00000000
 H      3   2   1     2.058948022359   153.03859413    63.81912106
 O      4   3   2     0.984057853979    54.06658566   164.69611066
 H      5   4   3     0.988284759805   102.69238400   271.65710942
 H      2   1   3     5.352275581862   105.67929155   218.68754108
 O      7   2   1     0.962545801735    72.64665641   184.11902971
 H      8   7   2     0.971724904320   103.76130033   340.16285723
 H      6   5   4     2.160134200873   143.95188708   137.75064267
 O     10   6   5     0.976192629129    55.44284845   209.76398317
 H     11  10   6     0.972896080356   105.20675379   108.77004020
 H      9   8   7     2.600898988092   146.65262533   342.73892037
 O     13   9   8     0.972172753273    42.43511341   161.31431358
 H     14  13   9     1.016448649045   100.34437791   203.56840746
 H      5   4   3     2.159013729877    98.24346588    70.14312334
 O     16   5   4     0.963100237754   147.46455717   314.96928262
 H     17  16   5     0.977662084457   107.18868724   263.93738712
 C     10   6   5     2.748221709977    89.28413373    63.27812198
 O     19  10   6     1.423247237064    41.83776637   230.49707819
 H     19  10   6     1.086345682682    82.48761349   103.53233827
 H     20  19  10     0.973742802248   108.01760920   119.71072836
 H     19  10   6     1.092873570239   152.96739509   219.91190770
 H     19  10   6     1.092355114065    89.81767903   355.02485230

---------------------------
INTERNAL COORDINATES (A.U.)
---------------------------
 H      0   0   0     0.000000000000     0.00000000     0.00000000
 O      1   0   0     1.883093001940     0.00000000     0.00000000
 H      2   1   0     1.872123019703   105.25973456     0.00000000
 H      3   2   1     3.890847886238   153.03859413    63.81912106
 O      4   3   2     1.859599843954    54.06658566   164.69611066
 H      5   4   3     1.867587538359   102.69238400   271.65710942
 H      2   1   3    10.114335042993   105.67929155   218.68754108
 O      7   2   1     1.818947956635    72.64665641   184.11902971
 H      8   7   2     1.836293946675   103.76130033   340.16285723
 H      6   5   4     4.082062052166   143.95188708   137.75064267
 O     10   6   5     1.844736723007    55.44284845   209.76398317
 H     11  10   6     1.838507148639   105.20675379   108.77004020
 H      9   8   7     4.914986789486   146.65262533   342.73892037
 O     13   9   8     1.837140258546    42.43511341   161.31431358
 H     14  13   9     1.920809575890   100.34437791   203.56840746
 H      5   4   3     4.079944668844    98.24346588    70.14312334
 O     16   5   4     1.819995688869   147.46455717   314.96928262
 H     17  16   5     1.847513591142   107.18868724   263.93738712
 C     10   6   5     5.193386387153    89.28413373    63.27812198
 O     19  10   6     2.689547498912    41.83776637   230.49707819
 H     19  10   6     2.052895827037    82.48761349   103.53233827
 H     20  19  10     1.840107221125   108.01760920   119.71072836
 H     19  10   6     2.065231746752   152.96739509   219.91190770
 H     19  10   6     2.064252006571    89.81767903   355.02485230

---------------------
BASIS SET INFORMATION
---------------------
There are 3 groups of distinct atoms

 Group   1 Type H   : 6s3p2d contracted to 4s3p2d pattern {3111/111/11}
 Group   2 Type O   : 19s6p3d2f contracted to 5s4p3d2f pattern {88111/3111/111/11}
 Group   3 Type C   : 19s6p3d2f contracted to 5s4p3d2f pattern {88111/3111/111/11}

Atom   0H    basis set group =>   1
Atom   1O    basis set group =>   2
Atom   2H    basis set group =>   1
Atom   3H    basis set group =>   1
Atom   4O    basis set group =>   2
Atom   5H    basis set group =>   1
Atom   6H    basis set group =>   1
Atom   7O    basis set group =>   2
Atom   8H    basis set group =>   1
Atom   9H    basis set group =>   1
Atom  10O    basis set group =>   2
Atom  11H    basis set group =>   1
Atom  12H    basis set group =>   1
Atom  13O    basis set group =>   2
Atom  14H    basis set group =>   1
Atom  15H    basis set group =>   1
Atom  16O    basis set group =>   2
Atom  17H    basis set group =>   1
Atom  18C    basis set group =>   3
Atom  19O    basis set group =>   2
Atom  20H    basis set group =>   1
Atom  21H    basis set group =>   1
Atom  22H    basis set group =>   1
Atom  23H    basis set group =>   1
---------------------------------
AUXILIARY/C BASIS SET INFORMATION
---------------------------------
There are 3 groups of distinct atoms

 Group   1 Type H   : 5s4p3d2f contracted to 5s4p3d2f pattern {11111/1111/111/11}
 Group   2 Type O   : 9s7p6d4f2g contracted to 9s7p6d4f2g pattern {111111111/1111111/111111/1111/11}
 Group   3 Type C   : 9s7p6d4f2g contracted to 9s7p6d4f2g pattern {111111111/1111111/111111/1111/11}

Atom   0H    basis set group =>   1
Atom   1O    basis set group =>   2
Atom   2H    basis set group =>   1
Atom   3H    basis set group =>   1
Atom   4O    basis set group =>   2
Atom   5H    basis set group =>   1
Atom   6H    basis set group =>   1
Atom   7O    basis set group =>   2
Atom   8H    basis set group =>   1
Atom   9H    basis set group =>   1
Atom  10O    basis set group =>   2
Atom  11H    basis set group =>   1
Atom  12H    basis set group =>   1
Atom  13O    basis set group =>   2
Atom  14H    basis set group =>   1
Atom  15H    basis set group =>   1
Atom  16O    basis set group =>   2
Atom  17H    basis set group =>   1
Atom  18C    basis set group =>   3
Atom  19O    basis set group =>   2
Atom  20H    basis set group =>   1
Atom  21H    basis set group =>   1
Atom  22H    basis set group =>   1
Atom  23H    basis set group =>   1


           ************************************************************
           *        Program running with 28 parallel MPI-processes    *
           *              working on a common directory               *
           ************************************************************
------------------------------------------------------------------------------
                           ORCA GTO INTEGRAL CALCULATION
------------------------------------------------------------------------------
------------------------------------------------------------------------------
                   ___                                                        
                  /   \      - P O W E R E D   B Y -                         
                 /     \                                                     
                 |  |  |   _    _      __       _____    __    __             
                 |  |  |  | |  | |    /  \     |  _  \  |  |  /  |          
                  \  \/   | |  | |   /    \    | | | |  |  | /  /          
                 / \  \   | |__| |  /  /\  \   | |_| |  |  |/  /          
                |  |  |   |  __  | /  /__\  \  |    /   |      \           
                |  |  |   | |  | | |   __   |  |    \   |  |\   \          
                \     /   | |  | | |  |  |  |  | |\  \  |  | \   \       
                 \___/    |_|  |_| |__|  |__|  |_| \__\ |__|  \__/        
                                                                              
                      - O R C A' S   B I G   F R I E N D -                    
                                      &                                       
                       - I N T E G R A L  F E E D E R -                       
                                                                              
 v1 FN, 2020, v2 2021                                                         
------------------------------------------------------------------------------


Reading SHARK input file CP.SHARKINP.tmp ... ok
----------------------
SHARK INTEGRAL PACKAGE
----------------------

Number of atoms                             ...     24
Number of basis functions                   ...    784
Number of shells                            ...    304
Maximum angular momentum                    ...      3
Integral batch strategy                     ... SHARK/LIBINT Hybrid
RI-J (if used) integral strategy            ... SPLIT-RIJ (Revised 2003 algorithm where possible)
Printlevel                                  ...      1
Contraction scheme used                     ... PARTIAL GENERAL contraction
Coulomb Range Separation                    ... NOT USED
Exchange Range Separation                   ... NOT USED
Finite Nucleus Model                        ... NOT USED
Auxiliary Coulomb fitting basis             ... NOT available
Auxiliary J/K fitting basis                 ... NOT available
Auxiliary Correlation fitting basis         ... AVAILABLE
   # of basis functions in Aux-C            ...   1584
   # of shells in Aux-C                     ...    448
   Maximum angular momentum in Aux-C        ...      4
Auxiliary 'external' fitting basis          ... NOT available
Integral threshold                          ...     1.000000e-10
Primitive cut-off                           ...     1.000000e-11
Primitive pair pre-selection threshold      ...     1.000000e-11

Calculating pre-screening integrals         ... done (  0.1 sec) Dimension = 304
Calculating pre-screening integrals (ORCA)  ... done (  0.1 sec) Dimension = 256
Organizing shell pair data                  ... done (  0.4 sec)
Shell pair information
Total number of shell pairs                 ...     46360
Shell pairs after pre-screening             ...     36009
Total number of primitive shell pairs       ...     62200
Primitive shell pairs kept                  ...     43766
          la=0 lb=0:   8144 shell pairs
          la=1 lb=0:   9679 shell pairs
          la=1 lb=1:   2849 shell pairs
          la=2 lb=0:   6459 shell pairs
          la=2 lb=1:   3871 shell pairs
          la=2 lb=2:   1361 shell pairs
          la=3 lb=0:   1709 shell pairs
          la=3 lb=1:   1083 shell pairs
          la=3 lb=2:    747 shell pairs
          la=3 lb=3:    107 shell pairs

Calculating one electron integrals          ... done (  0.1 sec)
Calculating RI/C V-Matrix + Cholesky decomp.... done (  0.3 sec)
Calculating Nuclear repulsion               ... done (  0.0 sec) ENN=    453.757955542679 Eh

SHARK setup successfully completed in   2.0 seconds

Maximum memory used throughout the entire GTOINT-calculation: 47.1 MB


           ************************************************************
           *        Program running with 28 parallel MPI-processes    *
           *              working on a common directory               *
           ************************************************************
-------------------------------------------------------------------------------
                                 ORCA SCF
-------------------------------------------------------------------------------

------------
SCF SETTINGS
------------
Hamiltonian:
 Ab initio Hamiltonian  Method          .... Hartree-Fock(GTOs)


General Settings:
 Integral files         IntName         .... CP
 Hartree-Fock type      HFTyp           .... RHF
 Total Charge           Charge          ....    0
 Multiplicity           Mult            ....    1
 Number of Electrons    NEL             ....   78
 Basis Dimension        Dim             ....  736
 Nuclear Repulsion      ENuc            ....    453.7579555427 Eh

Convergence Acceleration:
 DIIS                   CNVDIIS         .... on
   Start iteration      DIISMaxIt       ....    12
   Startup error        DIISStart       ....  0.200000
   # of expansion vecs  DIISMaxEq       ....     5
   Bias factor          DIISBfac        ....   1.050
   Max. coefficient     DIISMaxC        ....  10.000
 Trust-Rad. Augm. Hess. CNVTRAH         .... auto
   Auto Start mean grad. ratio tolernc. ....  1.125000
   Auto Start start iteration           ....    20
   Auto Start num. interpolation iter.  ....    10
   Max. Number of Micro iterations      ....    16
   Max. Number of Macro iterations      .... Maxiter - #DIIS iter
   Number of Davidson start vectors     ....     2
   Converg. threshold I  (grad. norm)   ....   5.000e-05
   Converg. threshold II (energy diff.) ....   1.000e-06
   Grad. Scal. Fac. for Micro threshold ....   0.100
   Minimum threshold for Micro iter.    ....   0.010
   NR start threshold (gradient norm)   ....   0.001
   Initial trust radius                 ....   0.400
   Minimum AH scaling param. (alpha)    ....   1.000
   Maximum AH scaling param. (alpha)    .... 1000.000
   Orbital update algorithm             .... Taylor
   White noise on init. David. guess    .... on
   Maximum white noise                  ....   0.010
   Quad. conv. algorithm                .... NR
 SOSCF                  CNVSOSCF        .... on
   Start iteration      SOSCFMaxIt      ....   150
   Startup grad/error   SOSCFStart      ....  0.003300
 Level Shifting         CNVShift        .... on
   Level shift para.    LevelShift      ....    0.2500
   Turn off err/grad.   ShiftErr        ....    0.0010
 Zerner damping         CNVZerner       .... off
 Static damping         CNVDamp         .... on
   Fraction old density DampFac         ....    0.7000
   Max. Damping (<1)    DampMax         ....    0.9800
   Min. Damping (>=0)   DampMin         ....    0.0000
   Turn off err/grad.   DampErr         ....    0.1000
 Fernandez-Rico         CNVRico         .... off

SCF Procedure:
 Maximum # iterations   MaxIter         ....   125
 SCF integral mode      SCFMode         .... Direct
   Integral package                     .... SHARK and LIBINT hybrid scheme
 Reset frequency        DirectResetFreq ....    20
 Integral Threshold     Thresh          ....  1.000e-10 Eh
 Primitive CutOff       TCut            ....  1.000e-11 Eh

Convergence Tolerance:
 Convergence Check Mode ConvCheckMode   .... Total+1el-Energy
 Convergence forced     ConvForced      .... 1
 Energy Change          TolE            ....  1.000e-06 Eh
 1-El. energy change                    ....  1.000e-03 Eh
 Orbital Gradient       TolG            ....  5.000e-05
 Orbital Rotation angle TolX            ....  5.000e-05
 DIIS Error             TolErr          ....  1.000e-06


Diagonalization of the overlap matrix:
Smallest eigenvalue                        ... 1.919e-05
Time for diagonalization                   ...    0.165 sec
Threshold for overlap eigenvalues          ... 1.000e-08
Number of eigenvalues below threshold      ... 0
Time for construction of square roots      ...    0.131 sec
Total time needed                          ...    0.301 sec

Time for model grid setup =    0.203 sec

------------------------------
INITIAL GUESS: MODEL POTENTIAL
------------------------------
Loading Hartree-Fock densities                     ... done
Calculating cut-offs                               ... done
Initializing the effective Hamiltonian             ... done
Setting up the integral package (SHARK)            ... done
Starting the Coulomb interaction                   ... done (   0.3 sec)
Reading the grid                                   ... done
Mapping shells                                     ... done
Starting the XC term evaluation                    ... done (   0.1 sec)
Transforming the Hamiltonian                       ... done (   0.2 sec)
Diagonalizing the Hamiltonian                      ... done (   0.1 sec)
Back transforming the eigenvectors                 ... done (   0.0 sec)
Now organizing SCF variables                       ... done
                      ------------------
                      INITIAL GUESS DONE (   0.9 sec)
                      ------------------
--------------
SCF ITERATIONS
--------------
ITER       Energy         Delta-E        Max-DP      RMS-DP      [F,P]     Damp
               ***  Starting incremental Fock matrix formation  ***
  0   -570.8474908904   0.000000000000 0.02764274  0.00038182  0.3795681 0.7000
  1   -571.0871470253  -0.239656134836 0.02028253  0.00027510  0.2206748 0.7000
                               ***Turning on DIIS***
  2   -571.2166842193  -0.129537194070 0.01475471  0.00017227  0.1168008 0.7000
  3   -572.3162497544  -1.099565535035 0.03672886  0.00039454  0.0848041 0.0000
  4   -571.3173148475   0.998934906896 0.00543097  0.00006072  0.0113136 0.0000
  5   -571.4560955049  -0.138780657438 0.00349887  0.00003070  0.0034617 0.0000
                      *** Initiating the SOSCF procedure ***
                           *** Shutting down DIIS ***
                      *** Re-Reading the Fockian *** 
                      *** Removing any level shift *** 
ITER      Energy       Delta-E        Grad      Rot      Max-DP    RMS-DP
  6   -571.46008324  -0.0039877327  0.000398  0.000398  0.001308  0.000014
               *** Restarting incremental Fock matrix formation ***
  7   -571.47110337  -0.0110201298  0.000105  0.000171  0.000342  0.000005
  8   -571.47110909  -0.0000057206  0.000050  0.000137  0.000344  0.000004
  9   -571.47111046  -0.0000013760  0.000027  0.000016  0.000087  0.000001
                 **** Energy Check signals convergence ****
              ***Rediagonalizing the Fockian in SOSCF/NRSCF***

               *****************************************************
               *                     SUCCESS                       *
               *           SCF CONVERGED AFTER  10 CYCLES          *
               *****************************************************


----------------
TOTAL SCF ENERGY
----------------

Total Energy       :         -571.47111055 Eh          -15550.51949 eV

Components:
Nuclear Repulsion  :          453.75795554 Eh           12347.38170 eV
Electronic Energy  :        -1025.22906610 Eh          -27897.90119 eV
One Electron Energy:        -1691.04410407 Eh          -46015.64946 eV
Two Electron Energy:          665.81503798 Eh           18117.74827 eV

Virial components:
Potential Energy   :        -1141.97576825 Eh          -31074.74046 eV
Kinetic Energy     :          570.50465769 Eh           15524.22097 eV
Virial Ratio       :            2.00169403


---------------
SCF CONVERGENCE
---------------

  Last Energy change         ...   -8.8755e-08  Tolerance :   1.0000e-06
  Last MAX-Density change    ...    1.8609e-05  Tolerance :   1.0000e-05
  Last RMS-Density change    ...    1.9759e-07  Tolerance :   1.0000e-06
  Last Orbital Gradient      ...    7.2775e-06  Tolerance :   5.0000e-05
  Last Orbital Rotation      ...    6.1021e-06  Tolerance :   5.0000e-05

             **** THE GBW FILE WAS UPDATED (CP.gbw) ****
             **** DENSITY CP.scfp WAS UPDATED ****
             **** ENERGY FILE WAS UPDATED (CP.en.tmp) ****
             **** THE GBW FILE WAS UPDATED (CP.gbw) ****
             **** DENSITY CP.scfp WAS UPDATED ****
----------------
ORBITAL ENERGIES
----------------

  NO   OCC          E(Eh)            E(eV) 
   0   2.0000     -20.600753      -560.5750 
   1   2.0000     -20.597913      -560.4977 
   2   2.0000     -20.579372      -559.9932 
   3   2.0000     -20.577893      -559.9529 
   4   2.0000     -20.572111      -559.7956 
   5   2.0000     -20.560675      -559.4844 
   6   2.0000     -20.531526      -558.6912 
   7   2.0000     -11.273494      -306.7674 
   8   2.0000      -1.397299       -38.0224 
   9   2.0000      -1.376066       -37.4447 
  10   2.0000      -1.366094       -37.1733 
  11   2.0000      -1.358665       -36.9712 
  12   2.0000      -1.355254       -36.8783 
  13   2.0000      -1.345640       -36.6167 
  14   2.0000      -1.313973       -35.7550 
  15   2.0000      -0.928941       -25.2778 
  16   2.0000      -0.754772       -20.5384 
  17   2.0000      -0.746358       -20.3094 
  18   2.0000      -0.732788       -19.9402 
  19   2.0000      -0.730652       -19.8821 
  20   2.0000      -0.723297       -19.6819 
  21   2.0000      -0.697952       -18.9922 
  22   2.0000      -0.681742       -18.5511 
  23   2.0000      -0.641361       -17.4523 
  24   2.0000      -0.634074       -17.2540 
  25   2.0000      -0.623801       -16.9745 
  26   2.0000      -0.612187       -16.6584 
  27   2.0000      -0.599079       -16.3018 
  28   2.0000      -0.589898       -16.0519 
  29   2.0000      -0.585687       -15.9374 
  30   2.0000      -0.553903       -15.0725 
  31   2.0000      -0.543123       -14.7791 
  32   2.0000      -0.529794       -14.4164 
  33   2.0000      -0.522986       -14.2312 
  34   2.0000      -0.520343       -14.1592 
  35   2.0000      -0.516604       -14.0575 
  36   2.0000      -0.499029       -13.5793 
  37   2.0000      -0.474946       -12.9239 
  38   2.0000      -0.456619       -12.4252 
  39   0.0000       0.014446         0.3931 
  40   0.0000       0.027280         0.7423 
  41   0.0000       0.035402         0.9633 
  42   0.0000       0.041970         1.1421 
  43   0.0000       0.046847         1.2748 
  44   0.0000       0.051968         1.4141 
  45   0.0000       0.053632         1.4594 
  46   0.0000       0.059925         1.6307 
  47   0.0000       0.067100         1.8259 
  48   0.0000       0.074625         2.0306 
  49   0.0000       0.075633         2.0581 
  50   0.0000       0.084815         2.3079 
  51   0.0000       0.087042         2.3685 
  52   0.0000       0.088667         2.4127 
  53   0.0000       0.101403         2.7593 
  54   0.0000       0.112304         3.0560 
  55   0.0000       0.127941         3.4815 
  56   0.0000       0.130486         3.5507 
  57   0.0000       0.131888         3.5889 
  58   0.0000       0.143649         3.9089 
  59   0.0000       0.146614         3.9896 
  60   0.0000       0.151893         4.1332 
  61   0.0000       0.155862         4.2412 
  62   0.0000       0.163685         4.4541 
  63   0.0000       0.167619         4.5611 
  64   0.0000       0.173977         4.7342 
  65   0.0000       0.177258         4.8234 
  66   0.0000       0.182031         4.9533 
  67   0.0000       0.193724         5.2715 
  68   0.0000       0.196304         5.3417 
  69   0.0000       0.198227         5.3940 
  70   0.0000       0.201025         5.4702 
  71   0.0000       0.204839         5.5739 
  72   0.0000       0.205888         5.6025 
  73   0.0000       0.213710         5.8153 
  74   0.0000       0.215324         5.8593 
  75   0.0000       0.217957         5.9309 
  76   0.0000       0.227387         6.1875 
  77   0.0000       0.229871         6.2551 
  78   0.0000       0.231992         6.3128 
  79   0.0000       0.239636         6.5208 
  80   0.0000       0.245123         6.6701 
  81   0.0000       0.247150         6.7253 
  82   0.0000       0.256497         6.9796 
  83   0.0000       0.258863         7.0440 
  84   0.0000       0.272568         7.4170 
  85   0.0000       0.273534         7.4432 
  86   0.0000       0.277563         7.5529 
  87   0.0000       0.285953         7.7812 
  88   0.0000       0.288440         7.8489 
  89   0.0000       0.300981         8.1901 
  90   0.0000       0.306801         8.3485 
  91   0.0000       0.310323         8.4443 
  92   0.0000       0.315082         8.5738 
  93   0.0000       0.323046         8.7905 
  94   0.0000       0.324608         8.8330 
  95   0.0000       0.332539         9.0489 
  96   0.0000       0.339460         9.2372 
  97   0.0000       0.341524         9.2933 
  98   0.0000       0.350098         9.5267 
  99   0.0000       0.353740         9.6258 
 100   0.0000       0.364677         9.9234 
 101   0.0000       0.366537         9.9740 
 102   0.0000       0.369917        10.0660 
 103   0.0000       0.372309        10.1310 
 104   0.0000       0.377836        10.2814 
 105   0.0000       0.385410        10.4875 
 106   0.0000       0.396063        10.7774 
 107   0.0000       0.403294        10.9742 
 108   0.0000       0.405266        11.0278 
 109   0.0000       0.407795        11.0967 
 110   0.0000       0.409430        11.1412 
 111   0.0000       0.416173        11.3246 
 112   0.0000       0.419588        11.4176 
 113   0.0000       0.423251        11.5172 
 114   0.0000       0.428805        11.6684 
 115   0.0000       0.430306        11.7092 
 116   0.0000       0.437233        11.8977 
 117   0.0000       0.443090        12.0571 
 118   0.0000       0.445319        12.1177 
 119   0.0000       0.448060        12.1923 
 120   0.0000       0.451761        12.2930 
 121   0.0000       0.456558        12.4236 
 122   0.0000       0.460917        12.5422 
 123   0.0000       0.467778        12.7289 
 124   0.0000       0.471237        12.8230 
 125   0.0000       0.476235        12.9590 
 126   0.0000       0.479456        13.0467 
 127   0.0000       0.483978        13.1697 
 128   0.0000       0.485686        13.2162 
 129   0.0000       0.490672        13.3519 
 130   0.0000       0.493475        13.4281 
 131   0.0000       0.496439        13.5088 
 132   0.0000       0.501865        13.6564 
 133   0.0000       0.511343        13.9143 
 134   0.0000       0.512434        13.9441 
 135   0.0000       0.518824        14.1179 
 136   0.0000       0.521816        14.1993 
 137   0.0000       0.523134        14.2352 
 138   0.0000       0.530348        14.4315 
 139   0.0000       0.536934        14.6107 
 140   0.0000       0.541799        14.7431 
 141   0.0000       0.547294        14.8926 
 142   0.0000       0.557305        15.1650 
 143   0.0000       0.561838        15.2884 
 144   0.0000       0.563698        15.3390 
 145   0.0000       0.571393        15.5484 
 146   0.0000       0.578223        15.7343 
 147   0.0000       0.590666        16.0728 
 148   0.0000       0.595657        16.2087 
 149   0.0000       0.602174        16.3860 
 150   0.0000       0.615825        16.7575 
 151   0.0000       0.619073        16.8458 
 152   0.0000       0.623597        16.9689 
 153   0.0000       0.630625        17.1602 
 154   0.0000       0.642930        17.4950 
 155   0.0000       0.656666        17.8688 
 156   0.0000       0.669510        18.2183 
 157   0.0000       0.670478        18.2446 
 158   0.0000       0.685968        18.6661 
 159   0.0000       0.693522        18.8717 
 160   0.0000       0.705492        19.1974 
 161   0.0000       0.707035        19.2394 
 162   0.0000       0.722258        19.6536 
 163   0.0000       0.725967        19.7546 
 164   0.0000       0.733181        19.9509 
 165   0.0000       0.741640        20.1811 
 166   0.0000       0.754126        20.5208 
 167   0.0000       0.757806        20.6209 
 168   0.0000       0.763611        20.7789 
 169   0.0000       0.772428        21.0188 
 170   0.0000       0.777351        21.1528 
 171   0.0000       0.778917        21.1954 
 172   0.0000       0.785011        21.3612 
 173   0.0000       0.791941        21.5498 
 174   0.0000       0.794808        21.6278 
 175   0.0000       0.803237        21.8572 
 176   0.0000       0.810715        22.0607 
 177   0.0000       0.817375        22.2419 
 178   0.0000       0.820196        22.3187 
 179   0.0000       0.829251        22.5651 
 180   0.0000       0.836172        22.7534 
 181   0.0000       0.838916        22.8281 
 182   0.0000       0.855339        23.2749 
 183   0.0000       0.861202        23.4345 
 184   0.0000       0.868632        23.6367 
 185   0.0000       0.875113        23.8130 
 186   0.0000       0.879377        23.9291 
 187   0.0000       0.887744        24.1568 
 188   0.0000       0.895390        24.3648 
 189   0.0000       0.895974        24.3807 
 190   0.0000       0.903294        24.5799 
 191   0.0000       0.904718        24.6186 
 192   0.0000       0.907679        24.6992 
 193   0.0000       0.913906        24.8687 
 194   0.0000       0.920863        25.0579 
 195   0.0000       0.922778        25.1101 
 196   0.0000       0.933765        25.4090 
 197   0.0000       0.937569        25.5126 
 198   0.0000       0.939237        25.5579 
 199   0.0000       0.947297        25.7773 
 200   0.0000       0.951630        25.8952 
 201   0.0000       0.956338        26.0233 
 202   0.0000       0.959923        26.1208 
 203   0.0000       0.968632        26.3578 
 204   0.0000       0.972199        26.4549 
 205   0.0000       0.975950        26.5570 
 206   0.0000       0.983795        26.7704 
 207   0.0000       0.985316        26.8118 
 208   0.0000       0.989738        26.9321 
 209   0.0000       0.998124        27.1603 
 210   0.0000       1.001034        27.2395 
 211   0.0000       1.008281        27.4367 
 212   0.0000       1.011365        27.5206 
 213   0.0000       1.018047        27.7025 
 214   0.0000       1.021351        27.7924 
 215   0.0000       1.025074        27.8937 
 216   0.0000       1.030225        28.0338 
 217   0.0000       1.037222        28.2242 
 218   0.0000       1.045768        28.4568 
 219   0.0000       1.049007        28.5449 
 220   0.0000       1.055194        28.7133 
 221   0.0000       1.058321        28.7984 
 222   0.0000       1.069139        29.0928 
 223   0.0000       1.071599        29.1597 
 224   0.0000       1.075816        29.2744 
 225   0.0000       1.080697        29.4073 
 226   0.0000       1.087862        29.6022 
 227   0.0000       1.090311        29.6689 
 228   0.0000       1.094221        29.7753 
 229   0.0000       1.101705        29.9789 
 230   0.0000       1.108181        30.1551 
 231   0.0000       1.111669        30.2501 
 232   0.0000       1.119017        30.4500 
 233   0.0000       1.130886        30.7730 
 234   0.0000       1.136617        30.9289 
 235   0.0000       1.141771        31.0692 
 236   0.0000       1.143663        31.1206 
 237   0.0000       1.148688        31.2574 
 238   0.0000       1.152102        31.3503 
 239   0.0000       1.161699        31.6114 
 240   0.0000       1.164900        31.6985 
 241   0.0000       1.173757        31.9396 
 242   0.0000       1.181361        32.1465 
 243   0.0000       1.182822        32.1862 
 244   0.0000       1.190954        32.4075 
 245   0.0000       1.192770        32.4569 
 246   0.0000       1.207478        32.8571 
 247   0.0000       1.208366        32.8813 
 248   0.0000       1.217984        33.1430 
 249   0.0000       1.225168        33.3385 
 250   0.0000       1.228268        33.4229 
 251   0.0000       1.237502        33.6741 
 252   0.0000       1.247978        33.9592 
 253   0.0000       1.253409        34.1070 
 254   0.0000       1.262317        34.3494 
 255   0.0000       1.264888        34.4194 
 256   0.0000       1.272365        34.6228 
 257   0.0000       1.280272        34.8380 
 258   0.0000       1.288985        35.0751 
 259   0.0000       1.295081        35.2409 
 260   0.0000       1.297908        35.3179 
 261   0.0000       1.304608        35.5002 
 262   0.0000       1.309777        35.6408 
 263   0.0000       1.317604        35.8538 
 264   0.0000       1.324253        36.0348 
 265   0.0000       1.331889        36.2425 
 266   0.0000       1.339908        36.4608 
 267   0.0000       1.340325        36.4721 
 268   0.0000       1.354708        36.8635 
 269   0.0000       1.357263        36.9330 
 270   0.0000       1.365561        37.1588 
 271   0.0000       1.373637        37.3786 
 272   0.0000       1.376453        37.4552 
 273   0.0000       1.388984        37.7962 
 274   0.0000       1.394677        37.9511 
 275   0.0000       1.403291        38.1855 
 276   0.0000       1.417066        38.5603 
 277   0.0000       1.422306        38.7029 
 278   0.0000       1.426318        38.8121 
 279   0.0000       1.432748        38.9871 
 280   0.0000       1.439217        39.1631 
 281   0.0000       1.445550        39.3354 
 282   0.0000       1.451567        39.4991 
 283   0.0000       1.465553        39.8797 
 284   0.0000       1.472740        40.0753 
 285   0.0000       1.474524        40.1239 
 286   0.0000       1.483636        40.3718 
 287   0.0000       1.489913        40.5426 
 288   0.0000       1.503131        40.9023 
 289   0.0000       1.505512        40.9671 
 290   0.0000       1.510495        41.1027 
 291   0.0000       1.520638        41.3787 
 292   0.0000       1.528548        41.5939 
 293   0.0000       1.538332        41.8601 
 294   0.0000       1.545715        42.0610 
 295   0.0000       1.553661        42.2773 
 296   0.0000       1.564489        42.5719 
 297   0.0000       1.570259        42.7289 
 298   0.0000       1.578968        42.9659 
 299   0.0000       1.586464        43.1699 
 300   0.0000       1.597628        43.4737 
 301   0.0000       1.602172        43.5973 
 302   0.0000       1.618100        44.0307 
 303   0.0000       1.627352        44.2825 
 304   0.0000       1.630750        44.3750 
 305   0.0000       1.643256        44.7153 
 306   0.0000       1.655837        45.0576 
 307   0.0000       1.659803        45.1655 
 308   0.0000       1.665781        45.3282 
 309   0.0000       1.674870        45.5755 
 310   0.0000       1.686601        45.8947 
 311   0.0000       1.693384        46.0793 
 312   0.0000       1.707720        46.4694 
 313   0.0000       1.713131        46.6167 
 314   0.0000       1.716282        46.7024 
 315   0.0000       1.728145        47.0252 
 316   0.0000       1.732768        47.1510 
 317   0.0000       1.740769        47.3687 
 318   0.0000       1.742765        47.4230 
 319   0.0000       1.748114        47.5686 
 320   0.0000       1.751404        47.6581 
 321   0.0000       1.771408        48.2025 
 322   0.0000       1.773880        48.2697 
 323   0.0000       1.789095        48.6837 
 324   0.0000       1.797497        48.9124 
 325   0.0000       1.807333        49.1800 
 326   0.0000       1.819984        49.5243 
 327   0.0000       1.822480        49.5922 
 328   0.0000       1.833596        49.8947 
 329   0.0000       1.847659        50.2773 
 330   0.0000       1.854522        50.4641 
 331   0.0000       1.866808        50.7984 
 332   0.0000       1.883524        51.2533 
 333   0.0000       1.887917        51.3728 
 334   0.0000       1.902354        51.7657 
 335   0.0000       1.906929        51.8902 
 336   0.0000       1.920264        52.2531 
 337   0.0000       1.929602        52.5071 
 338   0.0000       1.943064        52.8735 
 339   0.0000       1.960631        53.3515 
 340   0.0000       1.965774        53.4914 
 341   0.0000       1.973920        53.7131 
 342   0.0000       1.984687        54.0061 
 343   0.0000       1.990994        54.1777 
 344   0.0000       2.004513        54.5456 
 345   0.0000       2.014596        54.8199 
 346   0.0000       2.021715        55.0137 
 347   0.0000       2.034403        55.3589 
 348   0.0000       2.042011        55.5659 
 349   0.0000       2.053150        55.8691 
 350   0.0000       2.068476        56.2861 
 351   0.0000       2.076518        56.5049 
 352   0.0000       2.078962        56.5714 
 353   0.0000       2.088720        56.8370 
 354   0.0000       2.099209        57.1224 
 355   0.0000       2.108409        57.3727 
 356   0.0000       2.122837        57.7653 
 357   0.0000       2.139039        58.2062 
 358   0.0000       2.151396        58.5425 
 359   0.0000       2.160865        58.8001 
 360   0.0000       2.179457        59.3060 
 361   0.0000       2.194044        59.7030 
 362   0.0000       2.201456        59.9047 
 363   0.0000       2.218393        60.3655 
 364   0.0000       2.226086        60.5749 
 365   0.0000       2.259828        61.4931 
 366   0.0000       2.267388        61.6988 
 367   0.0000       2.273860        61.8749 
 368   0.0000       2.294930        62.4482 
 369   0.0000       2.317719        63.0684 
 370   0.0000       2.338373        63.6304 
 371   0.0000       2.340371        63.6847 
 372   0.0000       2.361069        64.2479 
 373   0.0000       2.365315        64.3635 
 374   0.0000       2.395878        65.1952 
 375   0.0000       2.396861        65.2219 
 376   0.0000       2.423314        65.9417 
 377   0.0000       2.437616        66.3309 
 378   0.0000       2.460340        66.9493 
 379   0.0000       2.465548        67.0910 
 380   0.0000       2.467527        67.1448 
 381   0.0000       2.484809        67.6151 
 382   0.0000       2.498300        67.9822 
 383   0.0000       2.509399        68.2842 
 384   0.0000       2.512981        68.3817 
 385   0.0000       2.515398        68.4474 
 386   0.0000       2.521721        68.6195 
 387   0.0000       2.538707        69.0817 
 388   0.0000       2.543652        69.2163 
 389   0.0000       2.559146        69.6379 
 390   0.0000       2.568030        69.8797 
 391   0.0000       2.575151        70.0734 
 392   0.0000       2.592873        70.5557 
 393   0.0000       2.595006        70.6137 
 394   0.0000       2.603754        70.8518 
 395   0.0000       2.613257        71.1103 
 396   0.0000       2.620781        71.3151 
 397   0.0000       2.626171        71.4617 
 398   0.0000       2.640572        71.8536 
 399   0.0000       2.644235        71.9533 
 400   0.0000       2.652704        72.1838 
 401   0.0000       2.658425        72.3394 
 402   0.0000       2.677598        72.8612 
 403   0.0000       2.691583        73.2417 
 404   0.0000       2.692870        73.2767 
 405   0.0000       2.717572        73.9489 
 406   0.0000       2.730337        74.2962 
 407   0.0000       2.736258        74.4574 
 408   0.0000       2.740600        74.5755 
 409   0.0000       2.743752        74.6613 
 410   0.0000       2.758858        75.0724 
 411   0.0000       2.765942        75.2651 
 412   0.0000       2.776855        75.5621 
 413   0.0000       2.789281        75.9002 
 414   0.0000       2.796233        76.0894 
 415   0.0000       2.805141        76.3318 
 416   0.0000       2.811508        76.5050 
 417   0.0000       2.819555        76.7240 
 418   0.0000       2.841028        77.3083 
 419   0.0000       2.842900        77.3592 
 420   0.0000       2.855948        77.7143 
 421   0.0000       2.865172        77.9653 
 422   0.0000       2.866640        78.0052 
 423   0.0000       2.879614        78.3583 
 424   0.0000       2.886679        78.5505 
 425   0.0000       2.894861        78.7732 
 426   0.0000       2.899983        78.9125 
 427   0.0000       2.910325        79.1940 
 428   0.0000       2.920767        79.4781 
 429   0.0000       2.934541        79.8529 
 430   0.0000       2.945029        80.1383 
 431   0.0000       2.954496        80.3959 
 432   0.0000       2.963207        80.6330 
 433   0.0000       2.974761        80.9474 
 434   0.0000       2.980651        81.1076 
 435   0.0000       2.986391        81.2638 
 436   0.0000       3.006764        81.8182 
 437   0.0000       3.012648        81.9783 
 438   0.0000       3.020323        82.1872 
 439   0.0000       3.033727        82.5519 
 440   0.0000       3.039886        82.7195 
 441   0.0000       3.042890        82.8013 
 442   0.0000       3.062775        83.3424 
 443   0.0000       3.075386        83.6855 
 444   0.0000       3.082034        83.8664 
 445   0.0000       3.089789        84.0774 
 446   0.0000       3.103856        84.4602 
 447   0.0000       3.110485        84.6406 
 448   0.0000       3.132213        85.2318 
 449   0.0000       3.149249        85.6954 
 450   0.0000       3.173552        86.3568 
 451   0.0000       3.188657        86.7678 
 452   0.0000       3.207340        87.2761 
 453   0.0000       3.221678        87.6663 
 454   0.0000       3.229405        87.8766 
 455   0.0000       3.242293        88.2273 
 456   0.0000       3.254590        88.5619 
 457   0.0000       3.274748        89.1104 
 458   0.0000       3.298647        89.7608 
 459   0.0000       3.338053        90.8330 
 460   0.0000       3.380973        92.0010 
 461   0.0000       3.398125        92.4677 
 462   0.0000       3.422605        93.1338 
 463   0.0000       3.447273        93.8051 
 464   0.0000       3.466987        94.3415 
 465   0.0000       3.540445        96.3404 
 466   0.0000       3.580755        97.4373 
 467   0.0000       3.631929        98.8298 
 468   0.0000       3.665558        99.7449 
 469   0.0000       3.728512       101.4580 
 470   0.0000       3.750505       102.0564 
 471   0.0000       3.752046       102.0984 
 472   0.0000       3.786906       103.0469 
 473   0.0000       3.807262       103.6009 
 474   0.0000       3.822890       104.0261 
 475   0.0000       3.895857       106.0117 
 476   0.0000       3.947492       107.4167 
 477   0.0000       3.960688       107.7758 
 478   0.0000       3.974703       108.1572 
 479   0.0000       3.989106       108.5491 
 480   0.0000       3.994660       108.7002 
 481   0.0000       4.013086       109.2016 
 482   0.0000       4.030106       109.6648 
 483   0.0000       4.058201       110.4293 
 484   0.0000       4.081250       111.0565 
 485   0.0000       4.090538       111.3092 
 486   0.0000       4.105977       111.7293 
 487   0.0000       4.113845       111.9434 
 488   0.0000       4.126348       112.2836 
 489   0.0000       4.133032       112.4655 
 490   0.0000       4.141965       112.7086 
 491   0.0000       4.154762       113.0568 
 492   0.0000       4.164171       113.3129 
 493   0.0000       4.186636       113.9242 
 494   0.0000       4.198267       114.2407 
 495   0.0000       4.210109       114.5629 
 496   0.0000       4.212641       114.6318 
 497   0.0000       4.231765       115.1522 
 498   0.0000       4.248594       115.6101 
 499   0.0000       4.264824       116.0518 
 500   0.0000       4.270800       116.2144 
 501   0.0000       4.274875       116.3253 
 502   0.0000       4.284312       116.5821 
 503   0.0000       4.301697       117.0551 
 504   0.0000       4.308523       117.2409 
 505   0.0000       4.313147       117.3667 
 506   0.0000       4.324623       117.6790 
 507   0.0000       4.327702       117.7628 
 508   0.0000       4.334305       117.9424 
 509   0.0000       4.341950       118.1505 
 510   0.0000       4.351355       118.4064 
 511   0.0000       4.356693       118.5516 
 512   0.0000       4.360204       118.6472 
 513   0.0000       4.384095       119.2973 
 514   0.0000       4.392871       119.5361 
 515   0.0000       4.397238       119.6549 
 516   0.0000       4.410661       120.0202 
 517   0.0000       4.414591       120.1271 
 518   0.0000       4.428000       120.4920 
 519   0.0000       4.436335       120.7188 
 520   0.0000       4.449565       121.0788 
 521   0.0000       4.466987       121.5529 
 522   0.0000       4.470912       121.6597 
 523   0.0000       4.491164       122.2108 
 524   0.0000       4.501912       122.5032 
 525   0.0000       4.507308       122.6501 
 526   0.0000       4.510030       122.7242 
 527   0.0000       4.515622       122.8763 
 528   0.0000       4.528136       123.2168 
 529   0.0000       4.536961       123.4570 
 530   0.0000       4.552245       123.8729 
 531   0.0000       4.563206       124.1712 
 532   0.0000       4.569635       124.3461 
 533   0.0000       4.584119       124.7402 
 534   0.0000       4.602779       125.2480 
 535   0.0000       4.613686       125.5448 
 536   0.0000       4.624172       125.8301 
 537   0.0000       4.641637       126.3054 
 538   0.0000       4.654907       126.6664 
 539   0.0000       4.657907       126.7481 
 540   0.0000       4.676466       127.2531 
 541   0.0000       4.684004       127.4582 
 542   0.0000       4.705231       128.0359 
 543   0.0000       4.709035       128.1394 
 544   0.0000       4.712663       128.2381 
 545   0.0000       4.721452       128.4772 
 546   0.0000       4.732665       128.7824 
 547   0.0000       4.739973       128.9812 
 548   0.0000       4.752997       129.3356 
 549   0.0000       4.766673       129.7078 
 550   0.0000       4.780868       130.0940 
 551   0.0000       4.795791       130.5001 
 552   0.0000       4.802965       130.6953 
 553   0.0000       4.808618       130.8491 
 554   0.0000       4.824708       131.2870 
 555   0.0000       4.831264       131.4654 
 556   0.0000       4.849964       131.9742 
 557   0.0000       4.864930       132.3815 
 558   0.0000       4.870951       132.5453 
 559   0.0000       4.888910       133.0340 
 560   0.0000       4.906483       133.5122 
 561   0.0000       4.914501       133.7304 
 562   0.0000       4.919437       133.8647 
 563   0.0000       4.934849       134.2841 
 564   0.0000       4.946595       134.6037 
 565   0.0000       4.953535       134.7926 
 566   0.0000       4.982635       135.5844 
 567   0.0000       4.989147       135.7616 
 568   0.0000       5.019606       136.5904 
 569   0.0000       5.024161       136.7144 
[...]
   TCutCPAO  ...     1.0e-03

--------------------------------
LOCAL RI TRANSFORMATION (IAVPAO)
--------------------------------

Orbital window:       2 to 8
Number of PAOs:     736
Basis functions:    736 (256 shells)
Aux. functions:    1584 (448 shells)
Use SHARK:           on

Processing maps (0.0 sec)
Average map sizes:
   Aux shells -> MOs               3.9
   Aux shells -> PAOs            388.1
   MOs        -> AO shells       244.7
   PAOs       -> AO shells       201.4

Calculating integrals (3.2 sec, 33.102 MB)
Sorting integrals (0.4 sec, 33.091 MB)
Total time for the integral transformation: 3.7 sec
--------------------------------
INITIAL GUESS AND PNO GENERATION
--------------------------------

PNO truncation parameters                   .... 
    ScaleTCutPNO       =        1.000e-02
    PAOOverlapThresh   =        1.000e-08

    TCutPairs          =        1.000e-05
    TCutPNO            =        1.000e-07
    TCutPNOSingles     =        3.000e-09
    TCutMP2Pairs       =        1.000e-06
    TCutMKN            =        1.000e-03
    TCutDO             =        5.000e-03

Pair selection                          .... not used
Type of local MP2 treatment                 .... full local PMP2
Strategy for PNO selection                  .... occupation number selection
Pair density normalization                  .... MP2 norm
Spin component scaling                      .... not used

PASS-1: Formation of initial guess LMP2 amplitudes
Initial amplitudes guess done. Entering LMP2 iteration loop:
   Max. no of iterations          ...  50
   Energy convergence tolerance   ...    1.0e-07
   Residual convergence tolerance ...    5.0e-07
   Fock matrix cutoff             ...    1.0e-05 Eh
   DIIS convergence acceleration parameters:
        Max # vectors in DIIS     ... 7
        Start iteration of DIIS   ... 0
        Levelshift                ... 2.000e-01
        Damping factor 1          ... 5.000e-01
        Damping factor 2          ... 1.000e+00
   L-MP2 PNO cut-off              ...   1.0e-09
   L-MP2 PNO cut-off (core)       ...   1.0e-11
                           *** Turning on DIIS ***
LMP2-Iter=   0:  ELMP2= -0.433542964639  DE=   7.6e-03 RMAX=   4.9e-03
LMP2-Iter=   1:  ELMP2= -0.437648916027  DE=   4.1e-03 RMAX=   2.5e-03
LMP2-Iter=   2:  ELMP2= -0.438278773062  DE=   6.3e-04 RMAX=   5.0e-04
LMP2-Iter=   3:  ELMP2= -0.438355178014  DE=   7.6e-05 RMAX=   1.7e-04
LMP2-Iter=   4:  ELMP2= -0.438360043029  DE=   4.9e-06 RMAX=   2.2e-05
LMP2-Iter=   5:  ELMP2= -0.438359727630  DE=   3.2e-07 RMAX=   7.3e-06
LMP2-Iter=   6:  ELMP2= -0.438359664283  DE=   6.3e-08 RMAX=   8.2e-07
LMP2-Iter=   7:  ELMP2= -0.438359660699  DE=   3.6e-09 RMAX=   1.9e-07
LMP2-Iter=   8:  ELMP2= -0.438359665331  DE=   4.6e-09 RMAX=   2.2e-08 => CONVERGED
PASS-2: Formation of Pair natural orbitals
   .... Finished loop over pairs

 PNO Occupation Number Statistics: 
  | Av. % of trace(Dij) retained        ...  99.941464726440
  | sigma^2 in % of trace(Dij) retained ...   4.48e-03
  | Av. % of trace(Di) retained         ...  99.999644543989
  | sigma^2 in % of trace(Di) retained  ...   1.21e-08
 Distributions of % trace(Dij) recovered:
  |       >= 99.9  ...    19 ( 67.9 % of all pairs)
  |   [99.0, 99.9) ...     9 ( 32.1 % of all pairs)
 Distributions of % trace(Di) recovered :
  |       >= 99.9  ...     7 (100.0 % of all I-pairs )

Making pair pair interaction lists          ... done

                       ===========================
                         28 OF   28 PAIRS ARE KEPT
                       ===========================

Total time spent in the initial guess                 ...    29.916 sec
L-MP2 correlation energy (all non-screened pairs)     ...      -0.438359665331 Eh
L-MP2 PNO error correction                            ...      -0.000002773597 Eh
                                                          --------------------
Initial total L-MP2 energy (non-screened pairs)       ...      -0.438362438928 Eh

Initial PNO correlation energy                        ...      -0.438149233103 Eh
sum of pair energies estimated for screened out pairs ...       0.000000000000 Eh
sum of MP2 pair energies for pairs that were not kept ...       0.000000000000 Eh
sum of PNO error estimates for the kept pairs         ...      -0.000213205824 Eh
                                                          --------------------
sum of all corrections                                         -0.000213205824
Initial total correlation energy                               -0.438362438928
Thresholds for map construction and integral transformation for fine MP2 and CCSD(T) calculation:
   TCutMKN   ...     1.0e-03
   TCutDO    ...     5.0e-03
   TCutPairs ...     1.0e-05
   TCutCMO   ...     1.0e-03
   TCutCPAO  ...     1.0e-03

Time for aux screen maps:            0.004
Time for maps after fine MP2:            0.012
-----------------------------
LOCAL RI TRANSFORMATION (IJV)
-----------------------------

Orbital window:       2 to 8
Basis functions:    736 (256 shells)
Aux. functions:    1584 (448 shells)
Use SHARK:           on

Processing maps (0.0 sec)
Average map sizes:
   Aux shells -> MOs(i)            3.9
   Aux shells -> MOs(j)            3.9
   MOs        -> AO shells       244.7

Calculating integrals (2.8 sec, 0.346 MB)
Sorting integrals (0.1 sec, 0.336 MB)
Total time for the integral transformation: 3.1 sec
--------------------------------
LOCAL RI TRANSFORMATION (VABPAO)
--------------------------------

Number of PAOs:     736
Basis functions:    736 (256 shells)
Aux. functions:    1584 (448 shells)
Use SHARK:           on

Processing maps (0.0 sec)
Average map sizes:
   Aux shells -> PAOs            388.1
   PAOs       -> AO shells       201.4

Calculating integrals (12.8 sec, 3261.865 MB)
Finished


-------------------------------------
Pair Pair Term precalculation with     
RI-(ij|mn) and (im|jn) transformation  
ON THE FLY                             
-------------------------------------

   IBatch   1 (of   1)              ... done (   27.893 sec)
Total EXT                           ...          27.893 sec

---------------------
RI-PNO TRANSFORMATION
---------------------

Total Number of PNOs                   ...  1800
Average number of PNOs per pair        ...    64
Maximal number of PNOs per pair        ...    76
   #pairs with  1 -  5 PNOs   :    0
   #pairs with  6 - 10 PNOs   :    0
   #pairs with 11 - 15 PNOs   :    0
   #pairs with 16 - 20 PNOs   :    0
   #pairs with 21 - 25 PNOs   :    0
   #pairs with 26 - 30 PNOs   :    0
   #pairs with 31 - 35 PNOs   :    0
   #pairs with 36 - 40 PNOs   :    0
   #pairs with 41 - 45 PNOs   :    0
   #pairs with 46 - 50 PNOs   :    0
   #pairs with 51 - 55 PNOs   :    2
   #pairs with 56 - 60 PNOs   :   10
   #pairs with 61 - 65 PNOs   :    3
   #pairs with 66 - 70 PNOs   :    7
   #pairs with 71 - 75 PNOs   :    5
   #pairs with 76 - 80 PNOs   :    1

Generation of (ij|ab)[P] integrals            ... on
Generation of (ia|bc)[P],(ja|bc)[P] integrals ... on
Storage of 3 and 4 external integrals         ... on
Generation of ALL (ka|bc)[P] integrals        ... on
Keep RI integrals in memory                   ... off

Ibatch:  1 (of  1)
Starting 2-4 index PNO integral generation ... done

Timings:
Total PNO integral transformation time     ...         27.050 sec
Size of the 3-external file                ...        59 MB
Size of the 4-external file                ...       505 MB
Size of the IKJL file                      ...         0 MB
Size of the all 3-external file            ...       209 MB
Size of the 1-external file                ...         0 MB

Making pair/pair overlap matrices          ... done (    0.968 sec)
Size of the pair overlap file              ... 24 MB
Redoing the guess amplitudes               ... done (    0.065 sec)

-------------------------
FINAL STARTUP INFORMATION
-------------------------

E(0)                                       ...   -115.091473463
E(L-MP2)                                   ...     -0.438362439
E(L-MP2) including corrections             ...     -0.438362439
Initial E(tot)                             ...   -115.529835902
<T|T>                                      ...      0.105592274
Number of pairs included                   ... 28
Total number of pairs                      ... 28

------------------------------------------------
                  RHF COUPLED CLUSTER ITERATIONS
------------------------------------------------

Number of PNO amplitudes to be optimized   ...       117150
Number of non-PNO amplitudes               ...     14798812
Untruncated number of regular amplitudes   ...     14798812

Iter       E(tot)           E(Corr)          Delta-E          Residual     Time
  0   -115.517315579     -0.425628911      0.012733528      0.013011967   19.72
                           *** Turning on DIIS ***
  1   -115.533610948     -0.441924279     -0.016295368      0.007788261   20.21
  2   -115.544732541     -0.453045873     -0.011121594      0.002145942   20.55
  3   -115.546862895     -0.455176226     -0.002130354      0.001197416   21.11
  4   -115.547368880     -0.455682211     -0.000505985      0.000342225   21.75
  5   -115.547476108     -0.455789439     -0.000107228      0.000119319   21.56
  6   -115.547497354     -0.455810686     -0.000021247      0.000054634   22.02
  7   -115.547499286     -0.455812618     -0.000001932      0.000022114   22.62
               --- The Coupled-Cluster iterations have converged ---

----------------------
COUPLED CLUSTER ENERGY
----------------------

E(0)                                       ...   -115.091473463
E(CORR)(strong-pairs)                      ...     -0.455812618
E(CORR)(weak-pairs)                        ...     -0.000213206
E(CORR)(corrected)                         ...     -0.456025824
E(TOT)                                     ...   -115.547499286
Singles Norm <S|S>**1/2                    ...      0.035981140  
T1 diagnostic                              ...      0.009616364  

------------------
LARGEST AMPLITUDES
------------------
   6->  9   6->  9       0.040020
   5->  9   5->  9       0.034264
   7->  9   7->  9       0.033040
   8->  9   8->  9       0.032588
   4->  9   4->  9       0.032301
   5-> 17   5-> 17       0.027320
   7-> 16   7-> 16       0.025122
   5-> 17   5->  9       0.024683
   5->  9   5-> 17       0.024683
   5-> 13   5-> 13       0.022948
   7->  9   7-> 16       0.022516
   7-> 16   7->  9       0.022516
   8-> 13   8-> 13       0.022509
   8-> 16   8-> 16       0.022192
   6->  9   6-> 16       0.022095
   6-> 16   6->  9       0.022095


-------------------------------------------
DLPNO BASED TRIPLES CORRECTION
-------------------------------------------

Singles multiplier          ...  1.000000
TCutTNO                     ... 1.000e-09
TCutMP2Pairs                ... 1.000e-06
TCutDOStrong                ... 1.000e-02
TCutMKNStrong               ... 1.000e-02
TCutDOWeak                  ... 2.000e-02
TCutMKNWeak                 ... 1.000e-01

Fragment selection                          .... not used
Fock matrix occ-virt block is zero --> Setting DT_in_Triples to false.
Number of Triples that are to be computed   ...        77

 . . . . . . . . .
10% done  
20% done  
30% done  
40% done  
50% done  
60% done  
70% done  
80% done  
90% done               (     46.946 sec)
Triples timings:
Total time for T0               ...    52.560 sec
Total time for Iterative (T)    ...     0.000 sec
Total time of overall (T)       ...    53.814 sec

Triples List generation         ...     0.000 sec
TNO generation                  ...     5.150 sec
Pair density generation         ...     0.001 sec
Look up tables                  ...     0.000 sec
Generating 3-index integrals    ...    39.681 sec
  Make 4-ind.int. from 3-ind.int...     2.656 sec
  Projecting amplitudes (D + S) ...     1.429 sec
  Downprojecting integrals      ...     0.000 sec
  Energy contr. (sum over a,b,c)...     0.602 sec
Fitting ET(->0)                 ...     0.000 sec

Everything after 3-index        ...     7.265 sec

Timing details:
 TNO integrals                  ...    42.073 sec
   Reading 3-index integrals    ...     1.657 sec
   Sorting integrals            ...     4.927 sec
       Sorting integrals 1      ...     0.000 sec
       Sorting integrals 2      ...     3.872 sec
       Sorting integrals 3      ...     0.068 sec
       Sorting integrals 4      ...     0.001 sec
       Sorting integrals 5      ...     0.014 sec
       Sorting integrals 6      ...     0.972 sec
   Calculating local VM**-1/2   ...     0.044 sec
   Orthogonal. integrals        ...     0.102 sec
   Multipl. 3-index integrals   ...    35.343 sec
   All concerning IRIab (w/TNO) ...     1.426 sec

 Calculate W0/W1                ...     2.550 sec
 W 3-ext contribution           ...     1.814 sec
 W 3-int contribution           ...     0.179 sec
 Sorting W                      ...     0.504 sec

 V exchange contribution        ...     0.193 sec

 Timings for Triples without generation
     of 3-index integrals       ...     7.265 sec
       0 weak pairs             ...     7.265 sec
       1 weak pair              ...     0.000 sec
       2 weak pairs             ...     0.000 sec
       3 weak pairs             ...     0.000 sec
  Extra time for extrapolation  ...     0.000 sec

Number of Triples   (0, 1, 2, 3 weak pairs; overall):     77       0       0       0  (    77)
Number of Atoms     (0, 1, 2, 3 weak pairs; overall):   20.6     0.0     0.0     0.0  (    24)
Number of PAOs      (0, 1, 2, 3 weak pairs; overall):  632.1     0.0     0.0     0.0  (   736)
Number of AuxFcns   (0, 1, 2, 3 weak pairs; overall):  368.4     0.0     0.0     0.0  (  1584)
Number of TNOs      (0, 1, 2, 3 weak pairs         ):  120.9     0.0     0.0     0.0
Aver. Number of NTNO, Atoms, PAOs, AuxFcns / Triples:     77   120.9    20.6   632.1   368.4

Triples Correction (T)                     ...     -0.015401169
Final correlation energy                   ...     -0.471426993
E(CCSD)                                    ...   -115.547499286
E(CCSD(T))                                 ...   -115.562900455



--------------------------------------------------------------------------------
                                    TIMINGS
--------------------------------------------------------------------------------


Total execution time                   ...      486.326 sec

Localization of occupied MO's          ...        1.310 sec (  0.3%)
Fock Matrix Formation                  ...      133.196 sec ( 27.4%)
Global overlap, Fock, MKN matrices     ...        1.721 sec (  0.4%)
Differential overlap integrals         ...        1.905 sec (  0.4%)
Organizing maps                        ...        0.039 sec (  0.0%)
RI 3-index integral generations        ...       21.808 sec (  4.5%)
RI-PNO integral transformation         ...       67.354 sec ( 13.8%)
Initial Guess                          ...       33.144 sec (  6.8%)
DIIS Solver                            ...        6.281 sec (  1.3%)
State Vector Update                    ...        0.004 sec (  0.0%)
Sigma-vector construction              ...      167.187 sec ( 34.4%)
  <D|H|D>(0-ext)                       ...        5.885 sec (  3.5% of sigma)
  <D|H|D>(2-ext Fock)                  ...        0.005 sec (  0.0% of sigma)
  <D|H|D>(2-ext)                       ...       13.181 sec (  7.9% of sigma)
  <D|H|D>(4-ext)                       ...        9.183 sec (  5.5% of sigma)
  <D|H|D>(4-ext-corr)                  ...       28.093 sec ( 16.8% of sigma)
  CCSD doubles correction              ...        2.770 sec (  1.7% of sigma)
  <S|H|S>                              ...       37.606 sec ( 22.5% of sigma)
  <S|H|D>(1-ext)                       ...        0.252 sec (  0.2% of sigma)
  <D|H|S>(1-ext)                       ...        0.001 sec (  0.0% of sigma)
  <S|H|D>(3-ext)                       ...        0.214 sec (  0.1% of sigma)
  Fock-dressing                        ...       24.013 sec ( 14.4% of sigma)
  Singles amplitudes                   ...        4.961 sec (  3.0% of sigma)
  (ik|jl)-dressing                     ...       12.490 sec (  7.5% of sigma)
  (ij|ab),(ia|jb)-dressing             ...       21.502 sec ( 12.9% of sigma)
  Pair energies                        ...        0.022 sec (  0.0% of sigma)
Total Time for computing (T)           ...       53.848 sec ( 11.1% of ALL)


Maximum memory used throughout the entire MDCI-calculation: 1667.7 MB

-------------------------   --------------------
FINAL SINGLE POINT ENERGY      -115.562900455083
-------------------------   --------------------


                            ***************************************
                            *     ORCA property calculations      *
                            ***************************************


  WARNING: The energy has been calculated at the MDCI level but the densities
           used in the property calculations are still SCF densities
           MDCI response densities have not been calculated 
           use %mdci Density linearized end
           or  %mdci Density unrelaxed end
           or  %mdci Density orbopt end

                                    ---------------------
                                    Active property flags
                                    ---------------------
   (+) Dipole Moment


------------------------------------------------------------------------------
                       ORCA ELECTRIC PROPERTIES CALCULATION
------------------------------------------------------------------------------

Dipole Moment Calculation                       ... on
Quadrupole Moment Calculation                   ... off
Polarizability Calculation                      ... off
GBWName                                         ... CP_job5.gbw
Electron density                                ... CP_job5.scfp
The origin for moment calculation is the CENTER OF MASS  = (-3.862969, 18.964331 14.969097)

-------------
DIPOLE MOMENT
-------------
                                X             Y             Z
Electronic contribution:     -0.61656      -1.62237       0.23644
Nuclear contribution   :      1.28070       1.86433      -0.34085
                        -----------------------------------------
Total Dipole Moment    :      0.66413       0.24196      -0.10442
                        -----------------------------------------
Magnitude (a.u.)       :      0.71451
Magnitude (Debye)      :      1.81613



--------------------
Rotational spectrum 
--------------------
 
Rotational constants in cm-1:     4.269809     0.824210     0.794708 
Rotational constants in MHz : 128005.649962 24709.207319 23824.756219 

 Dipole components along the rotational axes: 
x,y,z [a.u.] :    -0.395657     0.594950     0.002686 
x,y,z [Debye]:    -1.005680     1.512244     0.006828 

 

Timings for individual modules:

Sum of individual times         ...     1191.714 sec (=  19.862 min)
GTO integral calculation        ...        2.311 sec (=   0.039 min)   0.2 %
SCF iterations                  ...      701.350 sec (=  11.689 min)  58.9 %
MDCI module                     ...      488.053 sec (=   8.134 min)  41.0 %

Energy for            dimer from job 1  =   -573.671926467
Energy for         fragment from job 2  =   -458.087143123
Energy for         fragment from job 3  =   -115.561827055
Energy for            ghost from job 4  =   -458.088277634
Energy for            ghost from job 5  =   -115.562900455


Energy for fragment            dimer:   -573.671926467 Eh
Energy for fragment         fragment:   -573.648970178 Eh   14.405 kcal/mol
Energy for fragment            ghost:   -573.651178089 Eh   13.020 kcal/mol

----------------------------
REACTION ENERGIES (kcal/mol)  14.405  13.020 
----------------------------

                             ****ORCA TERMINATED NORMALLY****
TOTAL RUN TIME: 0 days 1 hours 15 minutes 14 seconds 635 msec
