606
 energy: -1026.589114089559 gnorm: 0.000039456110 xtb: 6.4.1 (afa7bdf)
H         0.17971995286792    3.04867979067402   -0.71716053618036
O         0.70682861075945    2.37770469523605   -1.20227677187268
H         1.64405001530333    2.51178601583321   -0.92632234130480
H        -0.09839865667375   -1.25781866232545    3.14783783866108
O         0.29427883836109   -0.56059702086677    2.60008598536437
H        -0.18804469365186    0.25291207524583    2.82359494530974
H        -2.41782954327598    2.42193681804523   -0.57862773341197
O        -2.20791349741879    1.95843861433512    0.24958180226232
H        -2.22225073984122    1.00874702259890    0.03217820736875
H        -4.68742331774106    0.57466996015070    2.14576176530510
O        -5.00096084929151   -0.35985313094403    2.16608858838651
H        -4.49303231073720   -0.84122022254131    1.50477706991630
H         0.04730138665513   -0.27759912828185    0.94120801688313
O        -0.14692745625121   -0.04957813430587    0.01153952252599
H         0.18902754560325    0.84744218029854   -0.11529511176814
H        -0.17272244298198   -3.52286305800767    3.79390411341403
O        -0.45514126304283   -2.68991604012035    4.20638161704512
H         0.18772653936080   -2.51226765484531    4.90933260059569
H        -4.91360068562080    2.55049916650966    1.27657863142116
O        -4.27504742912959    2.14704795260749    1.89644431715824
H        -3.43064871392354    2.12828841730276    1.38674990964033
H        -3.26614899927960    3.89267604201414   -2.26991988038862
O        -2.52732237425184    3.30000854418789   -2.03149788154783
H        -2.16531423131179    3.00594009141292   -2.88753827493767
H        -0.13017669273243   -3.77805063547840    0.52164246143281
O         0.20585818045175   -2.95607938070151    0.93390021028113
H        -0.58425885442751   -2.46934396104996    1.23832440923702
H        -2.39735179694447   -1.50207046929146    2.45962777554004
O        -2.20301342319394   -1.97445146105467    1.62350082830207
H        -2.46101840413341   -1.39463748469561    0.88799751207235
H         2.06678599154756   -1.42399398135419   -1.11443143793647
O         2.29582364896023   -1.66830119376149   -0.19397268834081
H         1.50639032484114   -2.09512851850357    0.19034583138742
H        -1.41975169828527    1.85890636199816    1.87719041525775
O        -1.51070969234665    1.46897367436111    2.75685239748958
H        -1.50294095985126    2.18760780800684    3.41496533567834
H         0.20783188000338   -2.69317332948372   -1.55987008281391
O        -0.54927691299178   -2.08418648122320   -1.62253745227358
H        -0.37447007557671   -1.35196014107574   -0.99417659646335
H        -3.44159337470385   -2.91621175210195   -0.39334922395036
O        -2.72079467730875   -3.40960038987053   -0.80655611058778
H        -2.01202957623254   -2.77845937048250   -1.02782539481144
H         2.74611933937756    0.18372803646156    2.92920455162483
O         2.84241161138664    0.01045553869963    3.89300101847389
H         2.92898479407809    0.90707479162402    4.28968596347609
H        -3.56167719067286    6.38756194323049   -0.62327608553134
O        -3.32117445433995    7.04456324684565   -1.32847642223910
H        -3.18506285085471    7.89423441703147   -0.86480722304401
H         3.88087090090828    0.62730656711070    1.18197189835485
O         2.93043176647190    0.44398335465659    1.29635185996872
H         2.69722641098387   -0.31373855187336    0.72211850927296
H        -5.79228648705042    0.83516017218034   -1.64720665346049
O        -4.88327324061041    1.16612154541867   -1.52006482523979
H        -4.99885518329373    1.99881774884920   -1.01630311790096
H        -1.25219033030029    5.43471178283957    2.14549016010490
O        -1.87170824129493    4.68300816998228    2.03233404833062
H        -1.95679739179348    4.27404552461741    2.89867561929775
H         3.46873139588592    2.79832216415043    0.40184275482259
O         3.22526997524737    2.74798025289778   -0.53790749441288
H         3.56100351029094    1.90339274677875   -0.88063279860357
H         1.49874948749942   -4.68873552881864   -2.21911017231571
O         1.55899423150260   -3.90655632076113   -1.65223338715484
H         2.35349586898329   -3.44600576844056   -2.00431315490382
H        -0.92687744197380   -0.08645153821369   -2.56493308472570
O        -0.29294995416446    0.56485691659423   -2.89185278779785
H        -0.03747870419564    1.15429992296391   -2.15890139944867
H         1.69886151387268   -4.65942869958240   -0.14713153961228
O         1.80498061512588   -5.28992464575284    0.60121401330699
H         1.34492427306225   -6.10486719523975    0.31031290912415
H        -1.22112103352114   -3.27071276827341   -2.87088549619601
O        -1.04266448977166   -3.95917739376507   -3.52500861222780
H        -0.91592481949122   -4.80171784028898   -3.04830240861915
H        -2.82219009820663    3.36534391766983    4.65010714181797
O        -1.84005110772597    3.36508628405298    4.62217365788808
H        -1.55248238327302    2.96820803913464    5.46227212159645
H         0.92358213691523    5.08787297937541    4.02281219269864
O        -0.02452571778503    5.31627744411216    4.06371709881384
H        -0.49881439036468    4.51616059875782    4.32827638803504
H        -1.73005943269644   -4.63596304915736   -0.35264297211062
O        -0.96443376244475   -5.17212275532625   -0.06023997229938
H        -1.31235166223004   -5.85511820822420    0.52236591255847
H        -3.94063038103962    5.82140982373911   -2.67478520981701
O        -4.28671657164446    4.98331861612658   -2.99945157658461
H        -4.12825621430999    4.94153708501558   -3.96673315265591
H        -2.44202690525710   -3.65732907664737    1.94396884680957
O        -2.45911896986565   -4.55836785087867    2.32739607598387
H        -1.51924240360270   -4.79249080221167    2.47347325833052
H        -4.69079411200473   -2.99482619370104   -2.90513718079710
O        -3.83617513343024   -3.22870823059072   -3.30614418232480
H        -3.50478857617837   -4.01736255709045   -2.83285002102650
H         0.30254816839336    1.43878105147619    4.58977252682936
O         0.80883341556479    2.19763193569926    4.25306411220708
H         0.85178779847593    2.86205080480911    4.95465196426971
H        -4.64897619531053   -5.17414006701601   -1.55872038972741
O        -5.35397838459035   -4.81794790265570   -0.99064300867862
H        -5.14318999791782   -5.16415549500326   -0.10270334534371
H         2.34570942412049   -6.48599519686049   -3.99016780469651
O         2.00465973391463   -6.15106796780888   -3.14065466050875
H         2.43817497165786   -6.71810107087013   -2.47102282992257
H         0.47684384336473   -3.38858148280010   -3.98905764999573
O         1.28006109363085   -3.02285098912615   -4.41234300913400
H         0.96250879381859   -2.65942093220806   -5.26509403926990
H         1.94237912451323   -1.69959447660845    2.98972107948851
O         2.10167003958376   -2.63174627984608    2.78106951127565
H         1.41896040899176   -2.85333634293687    2.11333433041858
H        -3.01271282915943   -1.82192017807362   -3.21965081273183
O        -2.59323815361112   -0.93374055855546   -3.16059678270573
H        -3.24952969722831   -0.29264971226042   -3.48787655853636
H        -3.22485939890518    4.99709382219305    1.01052596736420
O        -4.00570609725745    5.36555209153336    0.55122180272894
H        -4.42275699056218    5.92846549756370    1.25386798427116
H         0.84431685567633    2.29985506024212    2.56104943592605
O         0.94992227895607    2.28838655632019    1.59055704923277
H         1.67861816659341    1.66521139576051    1.43407846490109
H         0.16093604075903    5.67339701063148   -0.81959390220582
O         0.68346703924584    6.33254769279385   -1.33119912746959
H         0.81984852912257    7.13756572081855   -0.78180719489060
H         0.30344947073150    7.08240635369478    2.51584891927954
O        -0.05692566744847    6.69188084788647    1.70302866655227
H         0.60902493044541    6.02035895097214    1.44911727872371
H        -2.50848411703445    0.25890371508670    3.31582108015031
O        -2.72905413364232   -0.55196530830650    3.82631843647326
H        -1.97109146028326   -0.58403520930436    4.45124656944671
H        -0.93403403697700    0.62384400881703    6.00369335495079
O        -0.65394562024282    0.10078480933963    5.23410786982266
H         0.05946320807026   -0.49924683207251    5.52827436436884
H         0.70195554853143   -4.95283025218931    2.01082784673360
O         0.15736189485353   -5.05705901799955    2.81443046893090
H         0.30345019247363   -5.97502619427012    3.09463344434153
H        -2.11191679858481   -8.06772232042296    0.49426708241512
O        -1.79374443161619   -7.57232602653793    1.27654327982331
H        -2.58261129539757   -7.25948996352034    1.72704581437481
H        -0.40668652101263    6.86557091652335   -2.39848618179918
O        -1.15254170277975    7.27909028386421   -2.90351216993410
H        -1.94421898981160    7.15527548691328   -2.34143388332575
H        -1.14337202219231    4.33376563837638    0.51900042682145
O        -0.76687954715873    4.38843994552739   -0.37601376652537
H        -1.47061513040595    4.13935084812323   -1.00900099507275
H        -4.44493601264034    2.78714479041344    3.45402032440654
O        -4.44332987238871    2.96432586171730    4.41716201077817
H        -4.52984185385892    2.08503648297876    4.83321056419531
H         2.00353087651660   -3.51824093268139    4.26763302031730
O         1.93817936677692   -3.98332438983961    5.12467401626787
H         2.44135684658656   -3.43990376405256    5.75254958464063
H         4.67887772444943   -3.15141745797653    0.86921496430019
O         4.52183186038588   -3.08414610439907   -0.09843007902059
H         3.66170864195573   -2.61032687574518   -0.18902600154643
H        -2.73086157867321   -0.74464514278227   -1.36957533370268
O        -3.06199337742534   -0.46824866836707   -0.49854822598044
H        -3.86345651944726    0.05332276869143   -0.71266167957648
H        -1.61279408485316   -0.78152139463331   -4.64482588391106
O        -1.10312583390145   -0.57108464915301   -5.44851012277246
H        -0.39637231557844    0.03008504540277   -5.16557599954284
H         1.79718386201383   -1.71525667476734   -3.36985461028313
O         1.88517348650984   -0.96296379866143   -2.75271350704686
H         1.10637780439492   -0.38943795616907   -2.89122479350480
H         3.64744292715334   -3.06757717376141    2.57621258974113
O         4.60746946735422   -3.29419182203080    2.50880883016229
H         4.66444208812340   -4.25316211862278    2.64351225872743
H         3.41726227505307   -6.06254317120609    3.17312664563519
O         3.77571476239317   -5.86795080819857    2.27265994943476
H         3.03909655723304   -5.52941591996865    1.72408053889381
H        -3.34851566828471    1.58919277458882   -4.21705547466548
O        -4.19244890036407    1.11728368706935   -4.02545466369451
H        -4.41423410221991    1.27055962476211   -3.07090347155242
H        -5.10987980336630    4.15664778326401    0.00071369419873
O        -5.54492523085127    3.28813780898258   -0.09895787783490
H        -6.47502222976621    3.40252502154073   -0.38347250724319
H         6.72710544041398   -1.15174661049696   -1.34216572701057
O         5.95263043684988   -0.99959725893529   -0.79415184837103
H         5.53528645025453   -1.86688587485606   -0.59103746015564
H         4.59674543048766   -3.15400784546713   -2.44100513374583
O         3.72991847172078   -2.98865092368343   -2.86150808601605
H         3.73770577522187   -3.61376901379455   -3.61240767496202
H         4.40577375741889   -2.21097264517950    5.64295207126306
O         4.06148641992276   -2.67026860211731    6.43914510065963
H         4.39885303218926   -3.57518607675426    6.36625049326520
H        -0.79465303123579    6.38097596068794    4.96397278160989
O        -1.38648747530094    6.96581791133148    5.50295055702586
H        -1.40441950237492    7.84226081044901    5.05281249626645
H         4.68886380025056   -0.11294679364260   -1.46206574665896
O         3.92086165029017    0.42511231031115   -1.73188420503077
H         3.23134026564262   -0.18012529007555   -2.05973979617435
H        -0.75612829999946    4.51019680084530   -4.09179529036493
O        -1.53965612152766    5.04894154030830   -4.30749796135010
H        -1.39299224177442    5.91956682551881   -3.89144847628950
H         0.64454139642753    3.20580611532755   -2.69662137116200
O         0.65461446726351    3.57501261827509   -3.60814537771564
H         0.70567122419119    2.80683218426350   -4.18711276954829
H        -5.39072423248376   -5.17107638986134    1.80399862165413
O        -4.69102421704071   -5.76693015292781    1.45650765591201
H        -3.85274450223440   -5.34624384715850    1.72660022257324
H         7.88538809360641   -1.67941220822957   -4.00489750219186
O         7.62348699815081   -1.35925828006101   -3.10882851282635
H         7.13473959720288   -0.51820560655196   -3.27429626976624
H         3.71930118634001   -5.08351179434136   -5.24792665014488
O         4.47908092273982   -4.70399067045921   -4.76735651537298
H         4.86351211486724   -5.40937328820350   -4.21428182882681
H        -3.81876786683927    0.07057850475841    4.90634525588078
O        -4.42180098019786    0.53820031602666    5.53379275014502
H        -5.08216904092882   -0.11848594946034    5.82837167893834
H         3.46770268277077   -5.91423061353345   -0.47101402295933
O         4.34096142218909   -5.66733543390134   -0.78761358200102
H         4.41393942558553   -4.70360015513824   -0.65205841366800
H         5.00101101675513   -0.33429565433425   -4.15346442488522
O         4.46921130839268   -1.05047008910401   -4.53926564206486
H         4.14211127264263   -1.62871453779171   -3.81773741079249
H        -1.17818042815986    1.55799336238498   -3.96815010397709
O        -1.82889633101056    2.17362824010583   -4.36115668277956
H        -1.46943219590651    2.49907283672740   -5.20905443884440
H         4.89573937226959   -6.30516081708449   -2.25816806316028
O         5.23268539088937   -6.63634374339082   -3.11984733916103
H         6.05128768464600   -7.11347353456999   -2.92616580158297
H         8.74973067880068   -5.06928365775348   -2.85792465177405
O         8.05762096448571   -5.48421607851203   -2.29852181844569
H         8.09526241072629   -6.44226785063562   -2.39244616173098
H         2.30762006038140    4.75266151955451    0.40594207948704
O         1.72772565774744    4.73882133204594    1.17677876225316
H         1.37098340758706    3.81861136986036    1.25966087780052
H        -4.43909737582536   -2.58865056260974    4.22322662956912
O        -5.33329569621892   -2.25363284144944    4.01473368190735
H        -5.19683745465708   -1.47683573299192    3.43321404665246
H        -5.85749262246228   -3.17856028930746    1.30909780763101
O        -6.32087754507986   -3.73148346189612    1.98044514140025
H        -6.13711744878410   -3.28813301523816    2.82794204254016
H         1.63583141073621    3.55224110759721    6.82468406930473
O         1.01401645005881    4.06518555163091    6.28660127049596
H         0.22627926914294    4.21440985963152    6.85130716476575
H         4.97820587315383   -2.10217205457603    3.63836648252029
O         4.99424531191424   -1.37800223606100    4.29629183906364
H         4.18142232005138   -0.82559361506095    4.13184133593226
H         2.37305371170520   -5.50655616291462    4.87993206935578
O         2.75670854029293   -6.39133882140088    4.62889210951098
H         2.01406332928346   -6.97652293498493    4.45681252433227
H         2.27849945543201   -4.54458063748734   -6.75790653078327
O         2.10806777645523   -5.02639000163319   -5.93865244256808
H         1.83886261311141   -4.33041279414986   -5.29014671456175
H         6.43745391840256   -4.06673346974498   -0.45970445047388
O         7.19022109341930   -4.46345724870920    0.00971458385016
H         7.70128224344694   -4.89096527157507   -0.70559435700563
H        -1.79045351294080    4.56110903746763    7.64702270179956
O        -0.88930704965117    4.68378411272803    8.02794517944039
H        -0.73466493874857    5.64292894098546    8.03696150435135
H        -5.13081210509173    5.65404236505633   -5.67635333323523
O        -4.52072094037761    4.89227503567699   -5.68832034318792
H        -3.76233352170944    5.10422019346512   -6.25362843313321
H         3.30306152954844   -2.56710951146920   -8.41758021463854
O         3.21409014108448   -3.09305949198290   -7.61198989724891
H         4.08911180181104   -3.06266784011016   -7.18031891151187
H        -0.69336446471972    8.82807707597394   -2.37032291745163
O        -0.57376256377967    9.66162885235396   -1.85888014990952
H         0.18637372546371    9.49412112032512   -1.27746857981719
H         2.03423511594087   -0.84005184917019    5.21214486583704
O         1.46094823894322   -1.36230424467069    5.80232397777666
H         1.55116085753274   -1.00942223656670    6.69683978434372
H         5.21602948391213   -2.03528938796719   -5.67121018671244
O         5.56643170048832   -2.80494866157229   -6.18534907226552
H         5.29285437491081   -3.59127206261168   -5.66214401560921
H         5.67725517526783   -5.13623924203094    4.73639879918260
O         5.15183008457953   -5.04545216056108    5.56046539212455
H         4.43266830493801   -5.68053778210731    5.47798868629206
H        -4.01913548605796    1.21630539103678    6.96935718554144
O        -3.83065297974725    1.69909763203659    7.80992636101977
H        -4.70936249715797    2.08597717920961    8.06325096295623
H        -1.89319651001407    9.62596876725550   -0.84909243403037
O        -2.75441669706569    9.50020516753356   -0.37649743781867
H        -3.36692378221169   10.12367877997059   -0.77022649887244
H        -5.96748512827004    4.67013129113622   -3.01325508578391
O        -6.87441251973920    4.54558370763316   -3.36004589334494
H        -6.77957653528846    3.83760438349164   -4.03057890771887
H         0.10281983461817   -7.05119043416443   -1.09691089159607
O         0.56567968313738   -7.47926810705319   -0.34382945497763
H        -0.11532638918867   -7.67068594255089    0.30414490598262
H        -7.65756030314731    3.77539459147552   -2.04647899903360
O        -7.91976796844401    3.19365832897114   -1.30265692026963
H        -7.77268473194889    2.28272087099109   -1.63413993777519
H         3.93395543816113   -0.79798575372276    6.99415179670526
O         3.94050167470657    0.16615457040851    6.97709041113236
H         4.75360491576539    0.45372846704826    6.54538301938194
H         2.22965293362359    5.81516963638079   -1.23487745508170
O         3.16569008304178    5.52610888836748   -1.11457697614898
H         3.34673421298455    4.97996659573974   -1.90270024248889
H         6.54898194580639   -5.88276382319998    0.73168324159444
O         6.18064644990606   -6.61549231931685    1.27048319185713
H         5.27445649512249   -6.33915224628125    1.49158956259936
H        -3.92208813544873    4.81029259819420    7.71329891928861
O        -3.34347735205083    4.33807660589615    7.06916709273777
H        -3.54739527780681    3.39705747020323    7.18046886119389
H         5.76840556159130   -7.90546132628412    0.21208870845326
O         5.48484302951156   -8.59890029938599   -0.42045868705262
H         4.65607394970126   -8.27928537946707   -0.82036885362116
H        -0.60852489338921    2.12340097908236    7.66113830614840
O        -1.23848022276026    2.05779090763739    6.92386978589300
H        -2.10891049509507    1.91523686712118    7.31655536344728
H        -6.40284665496565   -0.10712748887478    1.02693300443108
O        -6.71888633592869   -0.20074527617173    0.11360479338963
H        -7.63730036217189   -0.47271545077318    0.13045290049555
H        -5.37752961027676   -3.06116853778559   -0.59526036545664
O        -5.12914415050467   -2.35310420338162    0.02539818779297
H        -5.70103444074085   -1.58350480516857   -0.17022530600286
H         4.28485005948590    5.61486235886229    0.27352692919747
O         4.61491491524977    5.72438679979109    1.17915295138604
H         3.91711592413899    6.23687786730760    1.62385864211522
H        -9.04730697915372   -1.76695759382932   -2.28415728690990
O        -8.50250564260402   -1.55738073089138   -1.49811619773395
H        -8.63016008342704   -2.28872992985549   -0.85447044992378
H        -5.53110524434761    3.43093285279891   -5.59041010112295
O        -6.04772090851283    2.72201694801237   -5.17179616821554
H        -5.38099982906232    2.14225595457618   -4.75046856400566
H         3.18675931513457   -0.90508326411638   -5.65013396517291
O         2.33287460527684   -1.03149671571873   -6.11795403845540
H         2.42241146498811   -1.88434344057245   -6.58367175742772
H         8.12339624955981   -1.35552181544285   -6.00265666127481
O         8.13248163432390   -2.21546341975873   -5.53862324937836
H         7.27836446931609   -2.62012050072691   -5.78882185739885
H         7.62382914551809    0.98107371992249   -6.30537886012203
O         7.43890550450624    0.12861819068808   -6.71181951230198
H         6.45783644018879    0.07543935604502   -6.75123085449822
H        -7.86979842271918   -3.68408946415797    0.91995384091355
O        -8.54598466896787   -3.58508006503283    0.23221320202003
H        -8.44351610510509   -4.34940511088654   -0.36248061598311
H        -2.45497211272081    8.76428377110487    1.19578091854422
O        -2.29637622428971    8.18628171254140    1.95501811375454
H        -1.52938316349698    7.62964048995458    1.73265008438841
H        -4.49584181513875    6.48094176803067    3.41756518947221
O        -4.65589068999141    6.88917076134084    2.54986982124451
H        -3.89838585261898    7.48308727024645    2.41514114113864
H         3.38736000736154    3.44822991010663   -3.60862490470276
O         3.23090950409562    4.41777796601938   -3.52368229970607
H         2.26623799735495    4.47858012758376   -3.63568841125329
H        -6.11548369541299   -1.62931601017901   -3.46366619780988
O        -6.19934955743221   -2.20222603323540   -2.67513842470937
H        -6.98599134772533   -1.89294153106218   -2.17178924272820
H         6.43119057093247    1.13109042183749    4.73952255158945
O         6.03304222201384    1.67501039890283    5.43625805142285
H         6.21988864314425    2.59149506955147    5.13806471814793
H         1.36079359338011    1.69892599228593   -5.84634312023938
O         1.16560510949757    1.10914304083312   -5.08748359636538
H         1.53217918857424    0.24472577031051   -5.34865999095416
H        -2.55401897914916    3.06776574198883   10.43686959692182
O        -2.33349818907292    2.16062270356686   10.16857123959810
H        -2.93074361796502    1.95106498677995    9.43841571294317
H         7.60128875047091   -0.42672150086194    3.10063633303287
O         6.84904971259065    0.14813050963766    3.26236734063913
H         6.15722898721849   -0.45137747639803    3.64397172114450
H        -5.65032729650018   -8.05311218165642   -0.66563539456555
O        -4.91742749098297   -8.11409992743637   -0.01619698331916
H        -4.92548894076546   -7.29241679461927    0.49879179146886
H        -5.17717506681663   -0.15080189651648   -4.74598763541776
O        -5.79120817381326   -0.86645149619770   -4.98199133987936
H        -6.63001830409597   -0.42894586018315   -5.18655345750807
H         1.90035941174958   -0.23472499566465   -7.52033403996581
O         1.70052528429784    0.22929093598576   -8.36897147686138
H         2.28049012881176   -0.18008207447978   -9.01654936860534
H         4.89243114826557   -1.43644097097373   -9.28855711346927
O         3.96758551475685   -1.21281633613816   -9.57591694850696
H         3.95100556306361   -1.33899071338342  -10.52395872418463
H         7.53966519602043   -2.49059636870490    4.23470189971531
O         7.68977526500562   -2.53403192399701    3.27603707986315
H         7.20011225888718   -3.32888071291218    3.00914367752007
H         6.71136280995502   -5.82970990111633    2.74500671213691
O         6.76879196382587   -5.14830192558688    3.44052400657531
H         7.64344835910886   -5.22743532419533    3.86206327552574
H        -1.82716037201512    9.00526359779757    3.39037700413100
O        -1.57866571458592    9.29835701818291    4.29117431148763
H        -2.44119944975164    9.40941697916509    4.74820227966320
H        -7.39282060701637    1.52463097463499   -5.30354744422975
O        -7.96628190101906    0.78089566391944   -5.05413569510127
H        -8.86943460394754    1.17863807789928   -4.98458221146552
H         6.94220905250381   -1.11274101766932   -8.38427892153596
O         6.36331770605493   -1.83778142243028   -8.64368691194940
H         6.13382479323885   -2.28109356459302   -7.80866483534663
H        -1.68654708461963    6.19916872850789   -7.09558671831294
O        -2.08244709101839    5.37477700661493   -6.81656774645551
H        -1.83749232124262    5.25316507182171   -5.85085740364422
H        -0.06131801428494    3.41280305638091    8.97952029367968
O         0.14099905476142    2.49835317963430    9.24660125770182
H        -0.65998319028979    2.23348476391451    9.74961225606052
H         6.75702339883241   -2.76085823322586   -2.67111057938884
O         6.22756425547501   -3.50364181303408   -2.32539433995939
H         6.69912624046245   -4.31522605765600   -2.56341883413850
H        -4.06813644260720   -3.10368402345854   -4.94485143005768
O        -4.21904347879996   -2.99982554567994   -5.91115326384509
H        -4.76868603733664   -2.20907297734474   -5.97609168791264
H         1.92586733726543    2.28226945605582    8.44005826972155
O         2.59148247027071    2.39405590905728    7.75161735302841
H         3.01843385911963    1.52499936473052    7.64345104291155
H        -6.90483185311669   -5.20973207717628   -1.38850427431115
O        -7.81863686149762   -5.48428505146380   -1.63500034373265
H        -7.95039484791660   -5.08959167583384   -2.52178288513670
H        -3.87772713470808    5.31308532268081    5.62836725264491
O        -3.85604601510309    6.07353458704564    5.02862201367410
H        -2.93145130881651    6.38472994198507    5.11373737424573
H        -7.89505322388840    0.07197181648561   -2.00820741153717
O        -7.40546080737121    0.79300065340038   -2.42639219069243
H        -7.63079179888807    0.77338347663648   -3.38019649430511
H         5.81886224909041    0.17348100928696    0.41768715883673
O         5.59270917818017    0.89961224310309    1.03171498428759
H         6.10081531402984    0.71280581673988    1.84792911983804
H        -6.26633592089767    3.38070621793604    7.33342266896059
O        -6.13943319091060    2.86561622281251    8.16481337251595
H        -6.74027090268425    2.10446189367284    8.08039704739523
H         2.28694860258791   -8.05113515686747   -0.77873057678346
O         2.96656829360647   -8.04267821053982   -1.47248469833528
H         2.74588719973225   -8.76262125043090   -2.08025990972465
H        -2.72846466187675   -3.99936159984248   -6.18581605561590
O        -1.97390677594929   -4.56131509299446   -5.94662567490541
H        -1.70168053507799   -4.26127499388252   -5.05102167371475
H        -5.68823165992354    3.81900880865095    5.24359563256736
O        -6.34022938157732    4.21412836195827    5.85768650466269
H        -6.17860020101771    5.15882351672613    5.84264551726399
H        -1.00401165176907   -7.12113156128756   -3.11847129024251
O        -0.53520650004745   -6.44548266308350   -2.59448846776744
H         0.37328157167148   -6.37671155154526   -2.97303001086333
H         4.40423621706783    2.09691571697794    5.11280615237207
O         3.46258379811039    2.33421757512058    4.98827375819530
H         3.07516887743184    2.35408222884537    5.86858483146306
H         4.05822806714040    4.74668891442292    6.26003810752705
O         4.13184059740149    5.47570621669464    5.63973364163289
H         3.57198321874226    5.22381893701086    4.86674814052964
H         2.72461688435477    3.68240104981398    3.88762788587999
O         2.54426045399331    4.62049798587912    3.71309572551157
H         2.42857483041618    4.71026067793325    2.74495527579175
H         9.37984802521486    0.25144775319117   -1.05361676169851
O         8.57195521437485    0.41658211796052   -0.56385872602362
H         8.39647053240840   -0.39868516674257   -0.06471787608796
H        -2.15728472387597    5.41857639936496   10.59121685346460
O        -2.88752066067683    4.80155052210914   10.82056042181377
H        -3.11982595217935    4.99484856496008   11.72888509866064
H         7.96362426918868   -2.96079136533352    0.36783799942872
O         8.38144281195288   -2.11073372275376    0.61718539469217
H         8.31228740858267   -2.09780559648054    1.57917849667526
H         5.33121708571300    3.73414291221809    3.49837091648909
O         5.98298699967129    4.00772375560345    4.16596775815966
H         5.56730334085683    4.73091062558841    4.65705434245705
H        -4.27892478358870    5.12101403782421    9.71330289685469
O        -4.90484402953003    5.25159454931188    8.98260350000277
H        -5.51838257741650    4.50482926166501    8.99230563061929
H        -7.00562009017634   -3.50432583719024   -3.49297007679379
O        -7.62271531128085   -4.12198519301488   -3.93812851986269
H        -7.09799867646192   -4.56854382001436   -4.63469907004473
H         0.02878313458605    6.05208177041546   10.57021174638922
O        -0.81603795037728    6.48329454536735   10.43101742838265
H        -0.75079280257045    6.94936552866565    9.58146283877939
H         2.58266021062628    1.49092488179584   -4.12267274475596
O         3.45929346331182    1.84809970718136   -3.88391283237328