 Entering Gaussian System, Link 0=g16
 Input=NH3_def33.com
 Output=NH3_def33.log
 Initial command:
 /home/spantaleone/g16/l1.exe "/scratch/cnt0027/pag0797/spantaleone/tino/NH3_def/33/NH3_def/Gau-20117.inp" -scrdir="/scratch/cnt0027/pag0797/spantaleone/tino/NH3_def/33/NH3_def/"
 Entering Link 1 = /home/spantaleone/g16/l1.exe PID=     20118.
  
 Copyright (c) 1988-2017, Gaussian, Inc.  All Rights Reserved.
  
 This is part of the Gaussian(R) 16 program.  It is based on
 the Gaussian(R) 09 system (copyright 2009, Gaussian, Inc.),
 the Gaussian(R) 03 system (copyright 2003, Gaussian, Inc.),
 the Gaussian(R) 98 system (copyright 1998, Gaussian, Inc.),
 the Gaussian(R) 94 system (copyright 1995, Gaussian, Inc.),
 the Gaussian 92(TM) system (copyright 1992, Gaussian, Inc.),
 the Gaussian 90(TM) system (copyright 1990, Gaussian, Inc.),
 the Gaussian 88(TM) system (copyright 1988, Gaussian, Inc.),
 the Gaussian 86(TM) system (copyright 1986, Carnegie Mellon
 University), and the Gaussian 82(TM) system (copyright 1983,
 Carnegie Mellon University). Gaussian is a federally registered
 trademark of Gaussian, Inc.
  
 This software contains proprietary and confidential information,
 including trade secrets, belonging to Gaussian, Inc.
  
 This software is provided under written license and may be
 used, copied, transmitted, or stored only in accord with that
 written license.
  
 The following legend is applicable only to US Government
 contracts under FAR:
  
                    RESTRICTED RIGHTS LEGEND
  
 Use, reproduction and disclosure by the US Government is
 subject to restrictions as set forth in subparagraphs (a)
 and (c) of the Commercial Computer Software - Restricted
 Rights clause in FAR 52.227-19.
  
 Gaussian, Inc.
 340 Quinnipiac St., Bldg. 40, Wallingford CT 06492
  
  
 ---------------------------------------------------------------
 Warning -- This program may not be used in any manner that
 competes with the business of Gaussian, Inc. or will provide
 assistance to any competitor of Gaussian, Inc.  The licensee
 of this program is prohibited from giving any competitor of
 Gaussian, Inc. access to this program.  By using this program,
 the user acknowledges that Gaussian, Inc. is engaged in the
 business of creating and licensing software in the field of
 computational chemistry and represents and warrants to the
 licensee that it is not a competitor of Gaussian, Inc. and that
 it will not use this program in any manner prohibited above.
 ---------------------------------------------------------------
  

 Cite this work as:
 Gaussian 16, Revision B.01,
 M. J. Frisch, G. W. Trucks, H. B. Schlegel, G. E. Scuseria, 
 M. A. Robb, J. R. Cheeseman, G. Scalmani, V. Barone, 
 G. A. Petersson, H. Nakatsuji, X. Li, M. Caricato, A. V. Marenich, 
 J. Bloino, B. G. Janesko, R. Gomperts, B. Mennucci, H. P. Hratchian, 
 J. V. Ortiz, A. F. Izmaylov, J. L. Sonnenberg, D. Williams-Young, 
 F. Ding, F. Lipparini, F. Egidi, J. Goings, B. Peng, A. Petrone, 
 T. Henderson, D. Ranasinghe, V. G. Zakrzewski, J. Gao, N. Rega, 
 G. Zheng, W. Liang, M. Hada, M. Ehara, K. Toyota, R. Fukuda, 
 J. Hasegawa, M. Ishida, T. Nakajima, Y. Honda, O. Kitao, H. Nakai, 
 T. Vreven, K. Throssell, J. A. Montgomery, Jr., J. E. Peralta, 
 F. Ogliaro, M. J. Bearpark, J. J. Heyd, E. N. Brothers, K. N. Kudin, 
 V. N. Staroverov, T. A. Keith, R. Kobayashi, J. Normand, 
 K. Raghavachari, A. P. Rendell, J. C. Burant, S. S. Iyengar, 
 J. Tomasi, M. Cossi, J. M. Millam, M. Klene, C. Adamo, R. Cammi, 
 J. W. Ochterski, R. L. Martin, K. Morokuma, O. Farkas, 
 J. B. Foresman, and D. J. Fox, Gaussian, Inc., Wallingford CT, 2016.
 
 ******************************************
 Gaussian 16:  ES64L-G16RevB.01 20-Dec-2017
                 8-Feb-2021 
 ******************************************
 %nosave
 %nproc=4
 Will use up to    4 processors via shared memory.
 %mem=1gb
 %chk=input
 --------------------
 #P B97D3/aug-cc-pvtz
 --------------------
 1/38=1,172=1/1;
 2/12=2,17=6,18=5,40=1/2;
 3/5=16,6=1,7=10,11=2,25=1,30=1,74=-59/1,2,3;
 4//1;
 5/5=2,38=5/2;
 6/7=2,8=2,9=2,10=2,28=1/1;
 99/5=1,9=1/99;
 Leave Link    1 at Mon Feb  8 14:52:17 2021, MaxMem=   134217728 cpu:               0.2 elap:               0.1
 (Enter /home/spantaleone/g16/l101.exe)
 -----
 Title
 -----
 Symbolic Z-matrix:
 Charge =  0 Multiplicity = 1
 N                     10.24416  -1.19338   3.3441 
 H                     9.98858  -0.30727   2.91481 
 H                     10.28012  -1.87921   2.59429 
 H                     11.18535  -1.09589   3.71132 
 
 ITRead=  0  0  0  0
 MicOpt= -1 -1 -1 -1
 NAtoms=      4 NQM=        4 NQMF=       0 NMMI=      0 NMMIF=      0
                NMic=       0 NMicF=      0.
                    Isotopes and Nuclear Properties:
 (Nuclear quadrupole moments (NQMom) in fm**2, nuclear magnetic moments (NMagM)
  in nuclear magnetons)

  Atom         1           2           3           4
 IAtWgt=          14           1           1           1
 AtmWgt=  14.0030740   1.0078250   1.0078250   1.0078250
 NucSpn=           2           1           1           1
 AtZEff=  -0.0000000  -0.0000000  -0.0000000  -0.0000000
 NQMom=    2.0440000   0.0000000   0.0000000   0.0000000
 NMagM=    0.4037610   2.7928460   2.7928460   2.7928460
 AtZNuc=   7.0000000   1.0000000   1.0000000   1.0000000
 Leave Link  101 at Mon Feb  8 14:52:17 2021, MaxMem=   134217728 cpu:               0.8 elap:               0.2
 (Enter /home/spantaleone/g16/l202.exe)
                          Input orientation:                          
 ---------------------------------------------------------------------
 Center     Atomic      Atomic             Coordinates (Angstroms)
 Number     Number       Type             X           Y           Z
 ---------------------------------------------------------------------
      1          7           0       10.244161   -1.193383    3.344100
      2          1           0        9.988578   -0.307271    2.914808
      3          1           0       10.280122   -1.879214    2.594291
      4          1           0       11.185347   -1.095888    3.711321
 ---------------------------------------------------------------------
                    Distance matrix (angstroms):
                    1          2          3          4
     1  N    0.000000
     2  H    1.017256   0.000000
     3  H    1.016794   1.630562   0.000000
     4  H    1.014982   1.639697   1.637311   0.000000
 Stoichiometry    H3N
 Framework group  C1[X(H3N)]
 Deg. of freedom     6
 Full point group                 C1      NOp   1
 Largest Abelian subgroup         C1      NOp   1
 Largest concise Abelian subgroup C1      NOp   1
                         Standard orientation:                         
 ---------------------------------------------------------------------
 Center     Atomic      Atomic             Coordinates (Angstroms)
 Number     Number       Type             X           Y           Z
 ---------------------------------------------------------------------
      1          7           0        0.001693   -0.000417   -0.112613
      2          1           0       -0.577759   -0.748143    0.261486
      3          1           0       -0.370143    0.869148    0.260838
      4          1           0        0.936048   -0.118084    0.265967
 ---------------------------------------------------------------------
 Rotational constants (GHZ):         299.0628332         295.8955470         187.3820315
 Leave Link  202 at Mon Feb  8 14:52:17 2021, MaxMem=   134217728 cpu:               0.1 elap:               0.0
 (Enter /home/spantaleone/g16/l301.exe)
 Standard basis: Aug-CC-pVTZ (5D, 7F)
 Ernie: Thresh=  0.10000D-02 Tol=  0.10000D-05 Strict=F.
 Ernie:  3 primitive shells out of 63 were deleted.
 There are   130 symmetry adapted cartesian basis functions of A   symmetry.
 There are   115 symmetry adapted basis functions of A   symmetry.
   115 basis functions,   153 primitive gaussians,   130 cartesian basis functions
     5 alpha electrons        5 beta electrons
       nuclear repulsion energy        11.9044920372 Hartrees.
 IExCor= 3630 DFT=T Ex+Corr=B97D3 ExCW=0 ScaHFX=  0.000000
 ScaDFX=  1.000000  1.000000  1.000000  1.000000 ScalE2=  1.000000  1.000000
 IRadAn=      5 IRanWt=     -1 IRanGd=            0 ICorTp=0 IEmpDi=141
 NAtoms=    4 NActive=    4 NUniq=    4 SFac= 1.00D+00 NAtFMM=   60 NAOKFM=F Big=F
 Integral buffers will be    131072 words long.
 Raffenetti 2 integral format.
 Two-electron integral symmetry is turned on.
 R6Disp:  Grimme-D3(BJ) Dispersion energy=       -0.0026831954 Hartrees.
 Nuclear repulsion after empirical dispersion term =       11.9018088418 Hartrees.
 Leave Link  301 at Mon Feb  8 14:52:17 2021, MaxMem=   134217728 cpu:               0.3 elap:               0.1
 (Enter /home/spantaleone/g16/l302.exe)
 NPDir=0 NMtPBC=     1 NCelOv=     1 NCel=       1 NClECP=     1 NCelD=      1
         NCelK=      1 NCelE2=     1 NClLst=     1 CellRange=     0.0.
 One-electron integrals computed using PRISM.
 One-electron integral symmetry used in STVInt
 NBasis=   115 RedAO= T EigKep=  2.73D-04  NBF=   115
 NBsUse=   115 1.00D-06 EigRej= -1.00D+00 NBFU=   115
 Precomputing XC quadrature grid using
 IXCGrd= 4 IRadAn=           5 IRanWt=          -1 IRanGd=           0 AccXCQ= 0.00D+00.
 Generated NRdTot=       0 NPtTot=           0 NUsed=           0 NTot=          32
 NSgBfM=   130   130   130   130   130 MxSgAt=     4 MxSgA2=     4.
 Leave Link  302 at Mon Feb  8 14:52:17 2021, MaxMem=   134217728 cpu:               0.8 elap:               0.2
 (Enter /home/spantaleone/g16/l303.exe)
 DipDrv:  MaxL=1.
 Leave Link  303 at Mon Feb  8 14:52:17 2021, MaxMem=   134217728 cpu:               0.2 elap:               0.1
 (Enter /home/spantaleone/g16/l401.exe)
 ExpMin= 2.53D-02 ExpMax= 1.14D+04 ExpMxC= 3.89D+02 IAcc=3 IRadAn=         5 AccDes= 0.00D+00
 Harris functional with IExCor= 3630 and IRadAn=       5 diagonalized for initial guess.
 HarFok:  IExCor= 3630 AccDes= 0.00D+00 IRadAn=         5 IDoV= 1 UseB2=F ITyADJ=14
 ICtDFT=  3500011 ScaDFX=  1.000000  1.000000  1.000000  1.000000
 FoFCou: FMM=F IPFlag=           0 FMFlag=      100000 FMFlg1=           0
         NFxFlg=           0 DoJE=T BraDBF=F KetDBF=T FulRan=T
         wScrn=  0.000000 ICntrl=       500 IOpCl=  0 I1Cent=   200000004 NGrid=           0
         NMat0=    1 NMatS0=      1 NMatT0=    0 NMatD0=    1 NMtDS0=    0 NMtDT0=    0
 Petite list used in FoFCou.
 Harris En= -56.6000009002091    
 JPrj=0 DoOrth=F DoCkMO=F.
 Leave Link  401 at Mon Feb  8 14:52:18 2021, MaxMem=   134217728 cpu:               2.1 elap:               0.6
 (Enter /home/spantaleone/g16/l502.exe)
 Keep J ints in memory in canonical form, NReq=26070887.
 FoFCou: FMM=F IPFlag=           0 FMFlag=           0 FMFlg1=           0
         NFxFlg=           0 DoJE=F BraDBF=F KetDBF=F FulRan=T
         wScrn=  0.000000 ICntrl=       600 IOpCl=  0 I1Cent=           0 NGrid=           0
         NMat0=    1 NMatS0=   6670 NMatT0=    0 NMatD0=    1 NMtDS0=    0 NMtDT0=    0
 Symmetry not used in FoFCou.
 Two-electron integral symmetry not used.
 Closed shell SCF:
 Using DIIS extrapolation, IDIIS=  1040.
 NGot=   134217728 LenX=   111934145 LenY=   111916804
 Requested convergence on RMS density matrix=1.00D-08 within 128 cycles.
 Requested convergence on MAX density matrix=1.00D-06.
 Requested convergence on             energy=1.00D-06.
 No special actions if energy rises.

 Cycle   1  Pass 1  IDiag  1:
 E= -56.4704987298349    
 DIIS: error= 4.08D-02 at cycle   1 NSaved=   1.
 NSaved= 1 IEnMin= 1 EnMin= -56.4704987298349     IErMin= 1 ErrMin= 4.08D-02
 ErrMax= 4.08D-02  0.00D+00 EMaxC= 1.00D-01 BMatC= 1.03D-01 BMatP= 1.03D-01
 IDIUse=3 WtCom= 5.92D-01 WtEn= 4.08D-01
 Coeff-Com:  0.100D+01
 Coeff-En:   0.100D+01
 Coeff:      0.100D+01
 Gap=     0.050 Goal=   None    Shift=    0.000
 GapD=    0.050 DampG=0.500 DampE=0.500 DampFc=0.2500 IDamp=-1.
 Damping current iteration by 2.50D-01
 RMSDP=4.09D-03 MaxDP=9.48D-02              OVMax= 3.70D-01

 Cycle   2  Pass 1  IDiag  1:
 E= -56.5003511566038     Delta-E=       -0.029852426769 Rises=F Damp=T
 DIIS: error= 1.11D-02 at cycle   2 NSaved=   2.
 NSaved= 2 IEnMin= 2 EnMin= -56.5003511566038     IErMin= 2 ErrMin= 1.11D-02
 ErrMax= 1.11D-02  0.00D+00 EMaxC= 1.00D-01 BMatC= 9.25D-03 BMatP= 1.03D-01
 IDIUse=3 WtCom= 8.89D-01 WtEn= 1.11D-01
 Coeff-Com: -0.360D+00 0.136D+01
 Coeff-En:   0.260D-01 0.974D+00
 Coeff:     -0.317D+00 0.132D+01
 Gap=     0.183 Goal=   None    Shift=    0.000
 RMSDP=7.88D-04 MaxDP=3.42D-02 DE=-2.99D-02 OVMax= 2.74D-01

 Cycle   3  Pass 1  IDiag  1:
 E= -56.5552696278013     Delta-E=       -0.054918471197 Rises=F Damp=F
 DIIS: error= 7.53D-04 at cycle   3 NSaved=   3.
 NSaved= 3 IEnMin= 3 EnMin= -56.5552696278013     IErMin= 3 ErrMin= 7.53D-04
 ErrMax= 7.53D-04  0.00D+00 EMaxC= 1.00D-01 BMatC= 4.91D-05 BMatP= 9.25D-03
 IDIUse=3 WtCom= 9.92D-01 WtEn= 7.53D-03
 Coeff-Com: -0.107D-01 0.250D-01 0.986D+00
 Coeff-En:   0.000D+00 0.000D+00 0.100D+01
 Coeff:     -0.107D-01 0.248D-01 0.986D+00
 Gap=     0.200 Goal=   None    Shift=    0.000
 RMSDP=1.15D-04 MaxDP=2.12D-03 DE=-5.49D-02 OVMax= 5.85D-03

 Cycle   4  Pass 1  IDiag  1:
 E= -56.5553030166160     Delta-E=       -0.000033388815 Rises=F Damp=F
 DIIS: error= 5.78D-04 at cycle   4 NSaved=   4.
 NSaved= 4 IEnMin= 4 EnMin= -56.5553030166160     IErMin= 4 ErrMin= 5.78D-04
 ErrMax= 5.78D-04  0.00D+00 EMaxC= 1.00D-01 BMatC= 2.05D-05 BMatP= 4.91D-05
 IDIUse=3 WtCom= 9.94D-01 WtEn= 5.78D-03
 Coeff-Com:  0.128D-01-0.148D-01 0.220D+00 0.782D+00
 Coeff-En:   0.000D+00 0.000D+00 0.172D+00 0.828D+00
 Coeff:      0.127D-01-0.148D-01 0.220D+00 0.782D+00
 Gap=     0.202 Goal=   None    Shift=    0.000
 RMSDP=2.41D-05 MaxDP=7.71D-04 DE=-3.34D-05 OVMax= 1.91D-03

 Cycle   5  Pass 1  IDiag  1:
 E= -56.5553219617745     Delta-E=       -0.000018945158 Rises=F Damp=F
 DIIS: error= 1.33D-04 at cycle   5 NSaved=   5.
 NSaved= 5 IEnMin= 5 EnMin= -56.5553219617745     IErMin= 5 ErrMin= 1.33D-04
 ErrMax= 1.33D-04  0.00D+00 EMaxC= 1.00D-01 BMatC= 7.32D-07 BMatP= 2.05D-05
 IDIUse=3 WtCom= 9.99D-01 WtEn= 1.33D-03
 Coeff-Com:  0.605D-02-0.624D-02 0.436D-01 0.240D+00 0.717D+00
 Coeff-En:   0.000D+00 0.000D+00 0.000D+00 0.000D+00 0.100D+01
 Coeff:      0.604D-02-0.624D-02 0.435D-01 0.240D+00 0.717D+00
 Gap=     0.202 Goal=   None    Shift=    0.000
 RMSDP=5.00D-06 MaxDP=9.71D-05 DE=-1.89D-05 OVMax= 3.22D-04

 Cycle   6  Pass 1  IDiag  1:
 E= -56.5553226362982     Delta-E=       -0.000000674524 Rises=F Damp=F
 DIIS: error= 1.13D-05 at cycle   6 NSaved=   6.
 NSaved= 6 IEnMin= 6 EnMin= -56.5553226362982     IErMin= 6 ErrMin= 1.13D-05
 ErrMax= 1.13D-05  0.00D+00 EMaxC= 1.00D-01 BMatC= 7.28D-09 BMatP= 7.32D-07
 IDIUse=1 WtCom= 1.00D+00 WtEn= 0.00D+00
 Coeff-Com:  0.212D-03-0.201D-03 0.175D-02-0.613D-02-0.699D-02 0.101D+01
 Coeff:      0.212D-03-0.201D-03 0.175D-02-0.613D-02-0.699D-02 0.101D+01
 Gap=     0.202 Goal=   None    Shift=    0.000
 RMSDP=7.24D-07 MaxDP=1.27D-05 DE=-6.75D-07 OVMax= 3.81D-05

 Cycle   7  Pass 1  IDiag  1:
 E= -56.5553226432666     Delta-E=       -0.000000006968 Rises=F Damp=F
 DIIS: error= 7.07D-07 at cycle   7 NSaved=   7.
 NSaved= 7 IEnMin= 7 EnMin= -56.5553226432666     IErMin= 7 ErrMin= 7.07D-07
 ErrMax= 7.07D-07  0.00D+00 EMaxC= 1.00D-01 BMatC= 4.24D-11 BMatP= 7.28D-09
 IDIUse=1 WtCom= 1.00D+00 WtEn= 0.00D+00
 Coeff-Com:  0.553D-05-0.398D-05 0.604D-04-0.265D-02-0.696D-02 0.171D+00
 Coeff-Com:  0.839D+00
 Coeff:      0.553D-05-0.398D-05 0.604D-04-0.265D-02-0.696D-02 0.171D+00
 Coeff:      0.839D+00
 Gap=     0.202 Goal=   None    Shift=    0.000
 RMSDP=5.27D-08 MaxDP=1.37D-06 DE=-6.97D-09 OVMax= 3.55D-06

 Cycle   8  Pass 1  IDiag  1:
 E= -56.5553226433036     Delta-E=       -0.000000000037 Rises=F Damp=F
 DIIS: error= 3.25D-07 at cycle   8 NSaved=   8.
 NSaved= 8 IEnMin= 8 EnMin= -56.5553226433036     IErMin= 8 ErrMin= 3.25D-07
 ErrMax= 3.25D-07  0.00D+00 EMaxC= 1.00D-01 BMatC= 5.91D-12 BMatP= 4.24D-11
 IDIUse=1 WtCom= 1.00D+00 WtEn= 0.00D+00
 Coeff-Com: -0.594D-05 0.479D-05-0.652D-04-0.145D-03-0.107D-02-0.184D-01
 Coeff-Com:  0.301D+00 0.719D+00
 Coeff:     -0.594D-05 0.479D-05-0.652D-04-0.145D-03-0.107D-02-0.184D-01
 Coeff:      0.301D+00 0.719D+00
 Gap=     0.202 Goal=   None    Shift=    0.000
 RMSDP=1.40D-08 MaxDP=4.48D-07 DE=-3.70D-11 OVMax= 1.04D-06

 Cycle   9  Pass 1  IDiag  1:
 E= -56.5553226433096     Delta-E=       -0.000000000006 Rises=F Damp=F
 DIIS: error= 1.51D-08 at cycle   9 NSaved=   9.
 NSaved= 9 IEnMin= 9 EnMin= -56.5553226433096     IErMin= 9 ErrMin= 1.51D-08
 ErrMax= 1.51D-08  0.00D+00 EMaxC= 1.00D-01 BMatC= 1.62D-14 BMatP= 5.91D-12
 IDIUse=1 WtCom= 1.00D+00 WtEn= 0.00D+00
 Coeff-Com: -0.870D-07-0.197D-06-0.197D-05 0.277D-04 0.348D-04-0.222D-02
 Coeff-Com:  0.226D-01 0.693D-01 0.910D+00
 Coeff:     -0.870D-07-0.197D-06-0.197D-05 0.277D-04 0.348D-04-0.222D-02
 Coeff:      0.226D-01 0.693D-01 0.910D+00
 Gap=     0.202 Goal=   None    Shift=    0.000
 RMSDP=1.32D-09 MaxDP=2.71D-08 DE=-5.97D-12 OVMax= 4.45D-08

 SCF Done:  E(RB97D3) =  -56.5553226433     A.U. after    9 cycles
            NFock=  9  Conv=0.13D-08     -V/T= 2.0062
 KE= 5.620591704441D+01 PE=-1.558127571233D+02 EE= 3.114970859377D+01
 Leave Link  502 at Mon Feb  8 14:52:22 2021, MaxMem=   134217728 cpu:              15.0 elap:               4.0
 (Enter /home/spantaleone/g16/l601.exe)
 Copying SCF densities to generalized density rwf, IOpCl= 0 IROHF=0.

 **********************************************************************

            Population analysis using the SCF Density.

 **********************************************************************

 Orbital symmetries:
       Occupied  (A) (A) (A) (A) (A)
       Virtual   (A) (A) (A) (A) (A) (A) (A) (A) (A) (A) (A) (A)
                 (A) (A) (A) (A) (A) (A) (A) (A) (A) (A) (A) (A)
                 (A) (A) (A) (A) (A) (A) (A) (A) (A) (A) (A) (A)
                 (A) (A) (A) (A) (A) (A) (A) (A) (A) (A) (A) (A)
                 (A) (A) (A) (A) (A) (A) (A) (A) (A) (A) (A) (A)
                 (A) (A) (A) (A) (A) (A) (A) (A) (A) (A) (A) (A)
                 (A) (A) (A) (A) (A) (A) (A) (A) (A) (A) (A) (A)
                 (A) (A) (A) (A) (A) (A) (A) (A) (A) (A) (A) (A)
                 (A) (A) (A) (A) (A) (A) (A) (A) (A) (A) (A) (A)
                 (A) (A)
 The electronic state is 1-A.
 Alpha  occ. eigenvalues --  -13.97712  -0.78012  -0.41754  -0.41498  -0.22623
 Alpha virt. eigenvalues --   -0.02389   0.02171   0.02183   0.06362   0.08401
 Alpha virt. eigenvalues --    0.11081   0.11113   0.11660   0.11719   0.15673
 Alpha virt. eigenvalues --    0.15727   0.16528   0.25981   0.28710   0.29568
 Alpha virt. eigenvalues --    0.29583   0.32203   0.32277   0.32306   0.38115
 Alpha virt. eigenvalues --    0.38139   0.43463   0.46596   0.46689   0.56716
 Alpha virt. eigenvalues --    0.61114   0.61250   0.64688   0.70984   0.76456
 Alpha virt. eigenvalues --    0.76533   0.76641   0.81890   0.81921   0.86945
 Alpha virt. eigenvalues --    0.88677   0.88734   0.94386   0.94884   0.94963
 Alpha virt. eigenvalues --    0.99099   0.99102   1.01949   1.05915   1.06133
 Alpha virt. eigenvalues --    1.11252   1.16104   1.16315   1.37991   1.50402
 Alpha virt. eigenvalues --    1.50545   1.51766   1.58838   1.60089   1.60163
 Alpha virt. eigenvalues --    1.73174   1.74555   1.74931   1.79543   1.79713
 Alpha virt. eigenvalues --    1.95820   2.09099   2.09209   2.09629   2.12967
 Alpha virt. eigenvalues --    2.13125   2.14734   2.98890   3.15074   3.15112
 Alpha virt. eigenvalues --    3.55206   3.58768   3.59026   3.76504   3.76622
 Alpha virt. eigenvalues --    3.78028   3.81954   3.82202   3.84344   3.92931
 Alpha virt. eigenvalues --    3.93105   3.93963   4.06840   4.09997   4.10139
 Alpha virt. eigenvalues --    4.24975   4.31225   4.31426   4.54884   4.55127
 Alpha virt. eigenvalues --    4.58986   4.59554   4.62102   4.62153   4.75290
 Alpha virt. eigenvalues --    5.13372   5.13978   5.24783   5.38022   5.38622
 Alpha virt. eigenvalues --    5.51071   5.79774   5.81421   5.92384   6.09816
 Alpha virt. eigenvalues --    6.39988   6.40791   7.11443   7.12013  16.17506
          Condensed to atoms (all electrons):
               1          2          3          4
     1  N    6.458115   0.310933   0.310938   0.311582
     2  H    0.310933   0.575092  -0.008387  -0.008660
     3  H    0.310938  -0.008387   0.575446  -0.008738
     4  H    0.311582  -0.008660  -0.008738   0.576011
 Mulliken charges:
               1
     1  N   -0.391568
     2  H    0.131022
     3  H    0.130741
     4  H    0.129805
 Sum of Mulliken charges =  -0.00000
 Mulliken charges with hydrogens summed into heavy atoms:
               1
     1  N   -0.000000
 Electronic spatial extent (au):  <R**2>=             27.1574
 Charge=             -0.0000 electrons
 Dipole moment (field-independent basis, Debye):
    X=             -0.0131    Y=              0.0035    Z=              1.4435  Tot=              1.4436
 Quadrupole moment (field-independent basis, Debye-Ang):
   XX=             -6.3492   YY=             -6.3935   ZZ=             -9.5097
   XY=             -0.0010   XZ=              0.0075   YZ=             -0.0013
 Traceless Quadrupole moment (field-independent basis, Debye-Ang):
   XX=              1.0682   YY=              1.0239   ZZ=             -2.0922
   XY=             -0.0010   XZ=              0.0075   YZ=             -0.0013
 Octapole moment (field-independent basis, Debye-Ang**2):
  XXX=              0.8470  YYY=              0.3473  ZZZ=              1.0769  XYY=             -0.8644
  XXY=             -0.3429  XXZ=              0.7842  XZZ=              0.0004  YZZ=              0.0005
  YYZ=              0.7699  XYZ=             -0.0006
 Hexadecapole moment (field-independent basis, Debye-Ang**3):
 XXXX=            -10.8758 YYYY=            -10.8980 ZZZZ=            -13.9143 XXXY=              0.0048
 XXXZ=              0.2991 YYYX=             -0.0077 YYYZ=              0.1123 ZZZX=              0.0121
 ZZZY=             -0.0018 XXYY=             -3.6175 XXZZ=             -4.3244 YYZZ=             -4.3268
 XXYZ=             -0.1153 YYXZ=             -0.2822 ZZXY=             -0.0009
 N-N= 1.190180884181D+01 E-N=-1.558127563824D+02  KE= 5.620591704441D+01
 No NMR shielding tensors so no spin-rotation constants.
 Leave Link  601 at Mon Feb  8 14:52:22 2021, MaxMem=   134217728 cpu:               0.7 elap:               0.2
 (Enter /home/spantaleone/g16/l9999.exe)
 1\1\GINC-N2478\SP\RB97D3\Aug-CC-pVTZ\H3N1\SPANTALEONE\08-Feb-2021\0\\#
 P B97D3/aug-cc-pvtz\\Title\\0,1\N,0,10.244161,-1.193383,3.3441\H,0,9.9
 88578,-0.307271,2.914808\H,0,10.280122,-1.879214,2.594291\H,0,11.18534
 7,-1.095888,3.711321\\Version=ES64L-G16RevB.01\State=1-A\HF=-56.555322
 6\RMSD=1.324e-09\Dipole=0.3663732,0.1504548,-0.407067\Quadrupole=-0.19
 89169,0.5976838,-0.3987668,-0.4030973,1.0881378,0.4364901\PG=C01 [X(H3
 N1)]\\@


 Sacred cows make the best hamburger.
                               -- Mark Twain
 Job cpu time:       0 days  0 hours  0 minutes 20.5 seconds.
 Elapsed time:       0 days  0 hours  0 minutes  5.5 seconds.
 File lengths (MBytes):  RWF=     10 Int=      0 D2E=      0 Chk=      2 Scr=      1
 Normal termination of Gaussian 16 at Mon Feb  8 14:52:22 2021.
