 Entering Gaussian System
 *********************************************
 Gaussian 98:
 frequency output generated by the xtb code
 *********************************************
                         Standard orientation:
 --------------------------------------------------------------------
  Center     Atomic     Atomic              Coordinates (Angstroms)
  Number     Number      Type              X           Y           Z
 --------------------------------------------------------------------
    1          1             0        1.650176   -6.656946   -3.058666
    2          8             0        1.422425   -6.839662   -3.999477
    3          1             0        2.295946   -7.005740   -4.398728
    4          1             0        2.679804   -5.762998   -1.432157
    5          8             0        1.854772   -6.289050   -1.346590
    6          1             0        1.132241   -5.605248   -1.267801
    7          1             0       -0.248626   -7.542138   -3.278868
    8          8             0       -0.957099   -7.717724   -2.633350
    9          1             0       -0.498212   -7.819377   -1.788985
   10          1             0        0.646831   -8.054120    0.827928
   11          8             0       -0.245950   -8.353564    0.544060
   12          1             0       -0.731271   -8.380788    1.400291
   13          1             0        3.061638   -7.436609    1.102179
   14          8             0        2.149876   -7.110563    1.113792
   15          1             0        2.052482   -6.781591    0.171695
   16          1             0        4.192353   -7.972228   -0.957938
   17          8             0        4.661169   -7.434312   -0.277524
   18          1             0        5.098490   -6.761521   -0.832425
   19          1             0       -1.308051   -6.928718    0.243859
   20          8             0       -1.912801   -6.177962    0.054855
   21          1             0       -2.513762   -6.509431   -0.628350
   22          1             0        2.653944   -9.317899   -2.166284
   23          8             0        3.588078   -8.995753   -2.320299
   24          1             0        3.547795   -8.418237   -3.095332
   25          7             0        1.105049  -10.124574   -1.731337
   26          1             0        0.393118  -10.003599   -2.446995
   27          1             0        0.681447   -9.821789   -0.854314
   28          1             0        1.285158  -11.120893   -1.651311
 --------------------------------------------------------------------
     1 basis functions        1 primitive gaussians
     1 alpha electrons        1 beta electrons
 
 Harmonic frequencies (cm**-1), IR intensities (KM/Mole),
 Raman scattering activities (A**4/amu), Raman depolarization ratios,
 reduced masses (AMU), force constants (mDyne/A) and normal coordinates:
                      1                      2                      3
                        a                      a                      a 
 Frequencies --   -43.6417               -27.2412               -11.9122
 Red. masses --    14.3200                14.0080                13.9184
 Frc consts  --     0.0000                 0.0000                 0.0000
 IR Inten    --     0.2528                 0.1411                 0.2849
 Raman Activ --     0.0000                 0.0000                 0.0000
 Depolar     --     0.0000                 0.0000                 0.0000
 Atom AN      X      Y      Z        X      Y      Z        X      Y      Z
   1   1     0.04  -0.00  -0.01     0.07   0.01  -0.03     0.01   0.09   0.05
   2   8     0.05  -0.09  -0.01     0.33   0.19  -0.15     0.09   0.21   0.21
   3   1     0.00  -0.04  -0.02     0.09   0.09  -0.04     0.03   0.06   0.06
   4   1     0.15   0.01  -0.03     0.02  -0.10   0.03     0.02   0.13   0.05
   5   8     0.54   0.17  -0.15     0.05  -0.33   0.02     0.08   0.53   0.13
   6   1     0.16   0.07  -0.05     0.02  -0.07  -0.00     0.02   0.13   0.04
   7   1     0.02   0.00   0.03     0.07   0.02  -0.06     0.05  -0.04   0.02
   8   8     0.02   0.05   0.08     0.29   0.11  -0.21     0.15  -0.26   0.02
   9   1    -0.01   0.01   0.03     0.08   0.05  -0.05     0.02  -0.05   0.02
  10   1    -0.02   0.03  -0.03    -0.00   0.00   0.06    -0.02  -0.02  -0.02
  11   8    -0.06   0.08  -0.10    -0.02  -0.02   0.29    -0.11  -0.04  -0.05
  12   1    -0.01   0.01  -0.02     0.00   0.01   0.08    -0.03   0.00  -0.01
  13   1    -0.02  -0.01  -0.02    -0.00   0.02   0.05    -0.01  -0.06  -0.04
  14   8    -0.05   0.03  -0.14     0.00   0.07   0.17    -0.04  -0.28  -0.16
  15   1     0.01   0.01  -0.04    -0.00  -0.00   0.04    -0.01  -0.04  -0.03
  16   1     0.01  -0.01   0.00    -0.04   0.04  -0.06    -0.01   0.02  -0.05
  17   8     0.07  -0.07   0.01    -0.12   0.23  -0.30    -0.02   0.12  -0.26
  18   1     0.03  -0.03  -0.00    -0.02   0.03  -0.10    -0.01   0.02  -0.08
  19   1    -0.11  -0.02   0.03    -0.03  -0.05   0.02     0.01   0.01  -0.03
  20   8    -0.60  -0.15   0.31    -0.11  -0.20   0.06     0.08   0.07  -0.14
  21   1    -0.15  -0.03   0.07    -0.03  -0.05   0.02     0.02   0.01  -0.03
  22   1     0.00  -0.01   0.00    -0.05  -0.01   0.01    -0.03  -0.04   0.02
  23   8     0.02  -0.04   0.02    -0.23  -0.03  -0.05    -0.16  -0.13   0.01
  24   1     0.01  -0.00   0.01    -0.08  -0.03  -0.03    -0.07  -0.05  -0.01
  25   7    -0.00   0.02   0.00    -0.19  -0.01   0.16    -0.05  -0.23   0.22
  26   1     0.00   0.01  -0.00    -0.06   0.00   0.05    -0.02  -0.07   0.06
  27   1    -0.00   0.01   0.00    -0.04   0.01   0.05    -0.01  -0.05   0.06
  28   1    -0.01   0.00  -0.00    -0.06  -0.00   0.05    -0.01  -0.06   0.07
                      4                      5                      6
                        a                      a                      a 
 Frequencies --    12.0546                42.3294                44.8189
 Red. masses --    14.1425                14.0733                14.3540
 Frc consts  --     0.0000                 0.0000                 0.0000
 IR Inten    --     0.2240                 0.1754                 0.2091
 Raman Activ --     0.0000                 0.0000                 0.0000
 Depolar     --     0.0000                 0.0000                 0.0000
 Atom AN      X      Y      Z        X      Y      Z        X      Y      Z
   1   1     0.01  -0.07   0.04     0.02  -0.01   0.05     0.05  -0.02  -0.04
   2   8    -0.00  -0.25   0.18     0.15   0.00   0.16     0.24  -0.17  -0.16
   3   1    -0.01  -0.07   0.03     0.05   0.02   0.05     0.07  -0.04  -0.03
   4   1     0.08  -0.10   0.05    -0.08   0.02   0.04    -0.05   0.04  -0.03
   5   8     0.24  -0.29   0.13    -0.26   0.00   0.20    -0.16   0.10  -0.16
   6   1     0.08  -0.05   0.03    -0.08  -0.01   0.04    -0.05   0.01  -0.06
   7   1    -0.03   0.00   0.04     0.04  -0.02   0.07     0.04   0.04   0.05
   8   8    -0.15   0.04   0.10     0.17  -0.08   0.26     0.17   0.31   0.22
   9   1    -0.05  -0.02   0.03     0.04  -0.03   0.07     0.05   0.01   0.04
  10   1    -0.06  -0.03  -0.01     0.03   0.05  -0.03    -0.01  -0.04  -0.04
  11   8    -0.24   0.02  -0.12     0.12   0.26  -0.20    -0.01  -0.26  -0.18
  12   1    -0.08   0.01  -0.04     0.02   0.06  -0.06    -0.01  -0.09  -0.05
  13   1    -0.03  -0.06   0.07     0.02   0.04   0.04    -0.06   0.04  -0.04
  14   8    -0.12  -0.28   0.16     0.13   0.26   0.24    -0.28   0.09  -0.16
  15   1    -0.00  -0.07   0.04     0.02   0.07   0.06    -0.07   0.03  -0.04
  16   1     0.01   0.09  -0.05    -0.03  -0.03  -0.04    -0.04   0.02   0.00
  17   8    -0.02   0.45  -0.26    -0.16  -0.10  -0.15    -0.23   0.13   0.03
  18   1     0.00   0.09  -0.08    -0.04  -0.02  -0.04    -0.07   0.04   0.01
  19   1    -0.00   0.06  -0.01    -0.05   0.03  -0.03     0.05   0.02   0.07
  20   8     0.02   0.28  -0.02    -0.30   0.07  -0.03     0.22   0.09   0.39
  21   1     0.01   0.08  -0.01    -0.07   0.01  -0.01     0.05   0.04   0.10
  22   1     0.04   0.01  -0.02     0.02  -0.06  -0.07     0.01  -0.03   0.01
  23   8     0.16   0.03  -0.07     0.09  -0.22  -0.23     0.01  -0.07   0.04
  24   1     0.05  -0.02  -0.03     0.03  -0.07  -0.07    -0.00  -0.02   0.01
  25   7     0.10   0.03  -0.10     0.06  -0.17  -0.23     0.06  -0.20  -0.01
  26   1     0.03   0.01  -0.03     0.01  -0.02  -0.05     0.03  -0.08  -0.02
  27   1     0.01   0.00  -0.03     0.04  -0.05  -0.05    -0.00  -0.05  -0.01
  28   1     0.03   0.01  -0.03    -0.00  -0.05  -0.08     0.03  -0.05   0.02
                      7                      8                      9
                        a                      a                      a 
 Frequencies --    50.4044                55.5620                63.9107
 Red. masses --    14.1316                13.9003                14.2546
 Frc consts  --     0.0000                 0.0000                 0.0000
 IR Inten    --     0.1159                 0.3060                 0.2089
 Raman Activ --     0.0000                 0.0000                 0.0000
 Depolar     --     0.0000                 0.0000                 0.0000
 Atom AN      X      Y      Z        X      Y      Z        X      Y      Z
   1   1     0.01  -0.02  -0.00    -0.03   0.08  -0.07    -0.01  -0.01   0.01
   2   8     0.16  -0.15  -0.03    -0.16   0.44  -0.31    -0.06  -0.00   0.03
   3   1     0.05  -0.03   0.02    -0.04   0.12  -0.09    -0.02   0.00   0.00
   4   1    -0.14   0.04   0.00    -0.01  -0.08  -0.02     0.01  -0.01  -0.00
   5   8    -0.46   0.06   0.03    -0.03  -0.33  -0.13     0.06  -0.07   0.02
   6   1    -0.14  -0.01   0.02    -0.01  -0.08  -0.02     0.01  -0.02   0.01
   7   1    -0.00   0.05  -0.02     0.03  -0.03   0.06    -0.04   0.08   0.05
   8   8    -0.02   0.32  -0.07     0.18  -0.16   0.26    -0.12   0.40   0.28
   9   1    -0.00   0.06  -0.02     0.06  -0.06   0.06    -0.00   0.01   0.04
  10   1    -0.02  -0.01   0.01    -0.03  -0.00  -0.02     0.06  -0.02  -0.06
  11   8    -0.13   0.10   0.08    -0.15   0.12  -0.14     0.25  -0.08  -0.31
  12   1    -0.02   0.04   0.03    -0.05   0.03  -0.04     0.05  -0.02  -0.08
  13   1     0.06  -0.07  -0.07     0.00  -0.03  -0.00     0.05   0.01   0.02
  14   8     0.20  -0.36  -0.20    -0.00  -0.15  -0.06     0.17   0.00   0.03
  15   1     0.03  -0.08  -0.04     0.00  -0.05  -0.02     0.05   0.00   0.01
  16   1     0.07  -0.01  -0.02     0.03   0.00   0.02     0.01   0.04   0.02
  17   8     0.27   0.00  -0.09     0.12  -0.04   0.11     0.16   0.18  -0.02
  18   1     0.04   0.02  -0.02     0.04  -0.01   0.03     0.04   0.03  -0.02
  19   1    -0.06   0.00   0.01    -0.03   0.06  -0.01    -0.00  -0.04  -0.08
  20   8    -0.30  -0.02   0.05    -0.12   0.25   0.04    -0.06  -0.22  -0.34
  21   1    -0.07  -0.01   0.01    -0.03   0.07   0.01     0.03  -0.05  -0.13
  22   1     0.04  -0.00   0.02     0.01   0.01   0.02    -0.05  -0.01   0.06
  23   8     0.17  -0.07   0.04     0.01   0.12   0.05    -0.24   0.04   0.27
  24   1     0.04  -0.03   0.00    -0.03   0.05   0.02    -0.07   0.01   0.07
  25   7     0.11   0.11   0.20     0.15  -0.22   0.17    -0.17  -0.21   0.04
  26   1     0.04   0.01   0.04     0.04  -0.09   0.04    -0.03  -0.08  -0.01
  27   1     0.02   0.05   0.04     0.03  -0.06   0.04    -0.07  -0.04  -0.01
  28   1     0.03   0.03   0.08     0.07  -0.05   0.06    -0.03  -0.05   0.04
                     10                     11                     12
                        a                      a                      a 
 Frequencies --    68.5389                73.7955                88.5062
 Red. masses --    13.8271                14.1998                13.1106
 Frc consts  --     0.0000                 0.0000                 0.0000
 IR Inten    --     0.2047                 0.1294                 0.0803
 Raman Activ --     0.0000                 0.0000                 0.0000
 Depolar     --     0.0000                 0.0000                 0.0000
 Atom AN      X      Y      Z        X      Y      Z        X      Y      Z
   1   1    -0.04   0.05  -0.00    -0.03   0.02   0.01     0.03  -0.06   0.03
   2   8    -0.19   0.26  -0.01    -0.08   0.17   0.03     0.15  -0.19   0.12
   3   1    -0.05   0.06  -0.01    -0.02   0.04   0.02     0.04   0.00   0.02
   4   1     0.04  -0.01   0.00    -0.01  -0.01   0.01     0.01  -0.01   0.01
   5   8     0.14   0.01  -0.00    -0.05  -0.03   0.07     0.04  -0.04   0.09
   6   1     0.04   0.01  -0.00    -0.01  -0.01   0.02     0.01  -0.01   0.01
   7   1    -0.06   0.08  -0.01    -0.05   0.00  -0.12    -0.02  -0.01  -0.04
   8   8    -0.22   0.35  -0.01    -0.24  -0.06  -0.54    -0.15   0.06  -0.20
   9   1    -0.04   0.04  -0.02    -0.07  -0.02  -0.13    -0.04  -0.03  -0.05
  10   1    -0.02   0.01   0.03     0.03   0.00  -0.05     0.02   0.01  -0.04
  11   8    -0.03  -0.08   0.12     0.13   0.05  -0.26     0.08   0.03  -0.21
  12   1    -0.01  -0.01   0.03     0.03  -0.01  -0.07     0.01  -0.00  -0.06
  13   1    -0.04   0.01   0.02     0.03   0.03   0.03    -0.00  -0.02   0.02
  14   8    -0.15   0.12   0.06     0.12   0.09   0.09     0.01   0.02   0.10
  15   1    -0.03   0.02   0.01     0.03   0.02   0.02     0.01   0.01   0.03
  16   1    -0.01  -0.05  -0.03     0.02   0.02   0.02    -0.04  -0.01  -0.02
  17   8    -0.20  -0.09  -0.09     0.09   0.16  -0.00    -0.09  -0.24   0.02
  18   1    -0.05  -0.02  -0.02     0.01   0.03  -0.02     0.00  -0.06   0.03
  19   1    -0.00  -0.03  -0.02     0.02   0.03   0.04     0.01   0.02  -0.01
  20   8     0.02  -0.12  -0.19    -0.01   0.12   0.37    -0.02   0.07   0.05
  21   1     0.03  -0.03  -0.07    -0.04   0.04   0.12    -0.01   0.02   0.01
  22   1     0.08  -0.07  -0.02     0.01  -0.06   0.05    -0.04   0.07  -0.05
  23   8     0.33  -0.35  -0.18     0.05  -0.23   0.26    -0.24   0.44  -0.34
  24   1     0.08  -0.09  -0.05     0.02  -0.07   0.06    -0.11   0.12  -0.07
  25   7     0.28  -0.08   0.27    -0.01  -0.25  -0.01     0.20  -0.14   0.35
  26   1     0.07  -0.07   0.06     0.02  -0.08  -0.03     0.05  -0.17   0.08
  27   1     0.07   0.02   0.06    -0.02  -0.04  -0.02     0.03   0.01   0.06
  28   1     0.08  -0.02   0.13    -0.02  -0.07   0.03     0.14  -0.01   0.19
                     13                     14                     15
                        a                      a                      a 
 Frequencies --   103.6174               138.4347               167.4506
 Red. masses --    12.7996                14.2405                13.9370
 Frc consts  --     0.0000                 0.0000                 0.0000
 IR Inten    --     0.2337                 0.2354                 0.1230
 Raman Activ --     0.0000                 0.0000                 0.0000
 Depolar     --     0.0000                 0.0000                 0.0000
 Atom AN      X      Y      Z        X      Y      Z        X      Y      Z
   1   1     0.01  -0.01   0.00     0.00  -0.00   0.02    -0.08   0.02   0.01
   2   8     0.03  -0.06   0.02     0.05   0.04   0.05    -0.55  -0.20   0.14
   3   1     0.01  -0.01   0.00     0.02   0.02   0.02    -0.17  -0.14   0.01
   4   1     0.01   0.03  -0.00    -0.02  -0.01   0.01     0.00  -0.00   0.02
   5   8     0.04   0.10  -0.03    -0.09  -0.00   0.06    -0.01   0.02   0.06
   6   1     0.00   0.02  -0.00    -0.02   0.01  -0.00     0.00   0.01   0.02
   7   1    -0.02   0.03  -0.02     0.00  -0.01   0.02     0.13   0.05  -0.08
   8   8    -0.09   0.17  -0.07    -0.01  -0.05   0.05     0.60   0.22  -0.22
   9   1    -0.02   0.02  -0.02    -0.00  -0.03   0.01     0.17   0.07  -0.07
  10   1    -0.04   0.00   0.08    -0.08  -0.03  -0.01    -0.02  -0.01  -0.00
  11   8    -0.23   0.07   0.45    -0.21  -0.26  -0.14    -0.04  -0.04  -0.06
  12   1    -0.04   0.05   0.12    -0.07  -0.09  -0.05    -0.02  -0.01  -0.02
  13   1     0.01   0.04   0.00    -0.08   0.08   0.06    -0.01  -0.00   0.02
  14   8     0.02   0.09  -0.01    -0.30   0.34   0.15    -0.02   0.01   0.09
  15   1    -0.01   0.01  -0.00    -0.06   0.07   0.03    -0.00   0.00   0.02
  16   1     0.03   0.03   0.02     0.11  -0.00  -0.02    -0.01  -0.01  -0.01
  17   8     0.21   0.02   0.08     0.64  -0.11  -0.17     0.01  -0.04  -0.07
  18   1     0.06   0.01   0.02     0.18  -0.06  -0.07     0.01  -0.02  -0.03
  19   1    -0.02   0.00   0.02    -0.01  -0.01  -0.00    -0.01   0.00  -0.02
  20   8    -0.02   0.04  -0.07     0.03   0.00   0.02    -0.03   0.03   0.01
  21   1     0.01   0.00  -0.02     0.00   0.02  -0.00    -0.01   0.02  -0.00
  22   1     0.01  -0.01  -0.04     0.00   0.01  -0.01    -0.01  -0.01   0.01
  23   8    -0.03   0.16  -0.07     0.02  -0.04  -0.11    -0.06   0.02   0.04
  24   1    -0.02   0.05  -0.01     0.01  -0.02  -0.03    -0.02   0.03   0.02
  25   7     0.06  -0.58  -0.30    -0.11   0.09   0.09     0.10  -0.03   0.02
  26   1     0.00  -0.14  -0.06    -0.02   0.00   0.01     0.02   0.04   0.02
  27   1     0.02  -0.20  -0.06    -0.05   0.03   0.02     0.04  -0.03   0.02
  28   1     0.05  -0.15  -0.13    -0.02   0.03   0.04     0.00  -0.02  -0.03
                     16                     17                     18
                        a                      a                      a 
 Frequencies --   182.1189               213.2153               214.9927
 Red. masses --    12.8019                 5.2808                11.0976
 Frc consts  --     0.0000                 0.0000                 0.0000
 IR Inten    --     0.2800                 0.1085                 0.1863
 Raman Activ --     0.0000                 0.0000                 0.0000
 Depolar     --     0.0000                 0.0000                 0.0000
 Atom AN      X      Y      Z        X      Y      Z        X      Y      Z
   1   1    -0.02  -0.01  -0.01    -0.02   0.02  -0.02    -0.01  -0.00  -0.00
   2   8    -0.09  -0.04  -0.02    -0.03  -0.01  -0.08    -0.05  -0.00  -0.01
   3   1    -0.02  -0.02  -0.01    -0.00  -0.02  -0.00    -0.01  -0.01  -0.00
   4   1    -0.01   0.03  -0.01     0.01   0.02   0.00    -0.01  -0.01   0.02
   5   8     0.02   0.03   0.01     0.04   0.07   0.02    -0.03  -0.03   0.07
   6   1    -0.01  -0.01   0.01     0.01   0.01   0.01    -0.01  -0.01   0.00
   7   1     0.02  -0.02  -0.02     0.01  -0.04  -0.01     0.01  -0.02  -0.01
   8   8     0.11   0.01  -0.03     0.06  -0.03   0.02     0.05   0.01   0.00
   9   1     0.04  -0.03  -0.02     0.04  -0.08  -0.02     0.02  -0.00  -0.00
  10   1     0.02  -0.01  -0.01    -0.03  -0.08   0.03     0.08   0.12   0.03
  11   8     0.06   0.02  -0.05    -0.11  -0.29   0.10     0.29   0.45   0.06
  12   1     0.01   0.01  -0.01    -0.04  -0.05   0.02     0.08   0.10   0.02
  13   1     0.02  -0.00   0.02     0.08   0.06   0.01    -0.16  -0.13   0.02
  14   8     0.06  -0.08  -0.00     0.27   0.07   0.08    -0.50  -0.18  -0.04
  15   1     0.02  -0.02  -0.00     0.04  -0.00   0.02    -0.07  -0.01  -0.01
  16   1     0.04   0.09   0.08    -0.02  -0.01   0.01     0.02   0.01  -0.01
  17   8     0.07   0.27   0.41    -0.08  -0.01  -0.01     0.15  -0.01  -0.05
  18   1     0.02   0.10   0.14    -0.03  -0.00  -0.01     0.05  -0.02  -0.02
  19   1     0.01  -0.00  -0.01    -0.04   0.04   0.01     0.06  -0.02   0.00
  20   8    -0.00  -0.03   0.02    -0.11   0.16  -0.03     0.09  -0.18   0.06
  21   1     0.01  -0.00  -0.00     0.01   0.05  -0.04     0.03  -0.07   0.02
  22   1     0.06   0.02  -0.13    -0.02   0.03  -0.01    -0.01   0.00  -0.01
  23   8     0.23  -0.07  -0.48    -0.00  -0.03   0.05    -0.03  -0.02   0.03
  24   1     0.10  -0.05  -0.15     0.04  -0.00   0.02     0.02  -0.02  -0.00
  25   7    -0.46  -0.11   0.16    -0.05   0.10  -0.14    -0.00  -0.01  -0.14
  26   1    -0.14  -0.08   0.05     0.10  -0.44  -0.23     0.06  -0.26  -0.14
  27   1    -0.11   0.02   0.03    -0.25   0.27  -0.23    -0.11   0.17  -0.15
  28   1    -0.13  -0.03   0.10     0.22   0.10   0.40     0.10   0.04   0.24
                     19                     20                     21
                        a                      a                      a 
 Frequencies --   232.3912               253.5915               258.2621
 Red. masses --    13.6178                13.3147                13.8696
 Frc consts  --     0.0000                 0.0000                 0.0000
 IR Inten    --     0.2062                 0.2155                 0.2137
 Raman Activ --     0.0000                 0.0000                 0.0000
 Depolar     --     0.0000                 0.0000                 0.0000
 Atom AN      X      Y      Z        X      Y      Z        X      Y      Z
   1   1     0.01   0.09  -0.20    -0.01   0.03  -0.01    -0.00   0.01   0.00
   2   8    -0.03  -0.15  -0.67    -0.01  -0.01  -0.02     0.00   0.01   0.01
   3   1    -0.02  -0.12  -0.16    -0.00  -0.02   0.00    -0.00  -0.01   0.00
   4   1     0.02   0.07   0.08     0.00   0.01   0.02     0.00  -0.01   0.02
   5   8     0.04   0.30   0.29     0.01   0.01   0.00    -0.03  -0.01   0.01
   6   1     0.02   0.08   0.08    -0.00  -0.00   0.01    -0.00   0.01  -0.01
   7   1    -0.03  -0.02  -0.01     0.01  -0.01   0.01    -0.00  -0.00  -0.01
   8   8    -0.08  -0.02   0.03     0.02   0.00   0.02    -0.00  -0.01  -0.05
   9   1    -0.01   0.05   0.01     0.00  -0.01   0.00     0.00  -0.05  -0.02
  10   1     0.00  -0.01   0.02    -0.06   0.03  -0.03     0.12  -0.05   0.04
  11   8     0.03   0.01  -0.02    -0.25   0.19  -0.12     0.49  -0.30   0.19
  12   1    -0.01  -0.00  -0.01    -0.06   0.03  -0.03     0.12  -0.04   0.05
  13   1    -0.01  -0.06   0.10     0.02  -0.00  -0.01    -0.07  -0.05  -0.02
  14   8    -0.01  -0.13   0.41     0.10   0.05   0.04    -0.22  -0.07  -0.02
  15   1     0.02   0.00   0.11     0.02   0.01   0.01    -0.06  -0.00  -0.00
  16   1    -0.01   0.00   0.00    -0.01  -0.08  -0.07     0.00  -0.04  -0.04
  17   8     0.04  -0.00  -0.03    -0.16  -0.20  -0.28    -0.03  -0.11  -0.16
  18   1     0.01  -0.01  -0.02    -0.05  -0.05  -0.08    -0.00  -0.03  -0.04
  19   1     0.01   0.00  -0.00     0.06  -0.05  -0.02    -0.09   0.09   0.03
  20   8    -0.00  -0.00  -0.01     0.16  -0.23   0.08    -0.28   0.38  -0.11
  21   1    -0.00  -0.01   0.00     0.03  -0.05   0.02    -0.04   0.09  -0.05
  22   1    -0.00  -0.01   0.00     0.11   0.10   0.01     0.07   0.04  -0.00
  23   8    -0.02  -0.02  -0.02     0.45   0.32   0.20     0.26   0.20   0.10
  24   1    -0.02   0.04   0.03     0.15   0.15   0.10     0.08   0.08   0.04
  25   7     0.04  -0.00   0.00    -0.32  -0.13   0.09    -0.19  -0.10   0.03
  26   1    -0.01   0.06   0.04    -0.05  -0.06  -0.01    -0.08   0.03   0.05
  27   1     0.05  -0.03   0.03    -0.14  -0.04  -0.00    -0.00  -0.04   0.04
  28   1    -0.02  -0.01  -0.06    -0.08  -0.03   0.05    -0.11  -0.04  -0.03
                     22                     23                     24
                        a                      a                      a 
 Frequencies --   329.8670               358.5271               372.8324
 Red. masses --     1.8286                 2.5437                 2.4488
 Frc consts  --     0.0000                 0.0000                 0.0000
 IR Inten    --     0.4194                 0.2559                 0.4184
 Raman Activ --     0.0000                 0.0000                 0.0000
 Depolar     --     0.0000                 0.0000                 0.0000
 Atom AN      X      Y      Z        X      Y      Z        X      Y      Z
   1   1     0.02  -0.00   0.00     0.04   0.09  -0.02     0.05   0.20  -0.04
   2   8     0.00  -0.01   0.02     0.03   0.01   0.05     0.05   0.10   0.03
   3   1    -0.00   0.04  -0.03    -0.03  -0.13  -0.01    -0.04  -0.43   0.07
   4   1     0.02  -0.04   0.01    -0.05   0.10   0.05     0.01  -0.03   0.08
   5   8    -0.02  -0.00  -0.04     0.03  -0.03  -0.03    -0.01  -0.09   0.12
   6   1     0.02   0.03  -0.00    -0.07  -0.09   0.01     0.01  -0.01   0.04
   7   1     0.00   0.00   0.01     0.03   0.07   0.04     0.05  -0.05   0.04
   8   8    -0.00  -0.05   0.02    -0.00   0.02  -0.03    -0.02  -0.01   0.01
   9   1    -0.04   0.27   0.06    -0.02  -0.30  -0.04    -0.09   0.22   0.07
  10   1     0.01  -0.03   0.00     0.02  -0.01  -0.00    -0.03   0.03   0.03
  11   8     0.00  -0.02   0.02     0.03   0.05   0.02    -0.02  -0.04  -0.02
  12   1     0.01  -0.03   0.01     0.01   0.02   0.01    -0.03  -0.03  -0.02
  13   1    -0.00  -0.02  -0.00    -0.00   0.02   0.02     0.03   0.10  -0.01
  14   8     0.01   0.00   0.02    -0.03   0.01  -0.01     0.01   0.06  -0.16
  15   1     0.00   0.01   0.01     0.00  -0.02  -0.01    -0.01  -0.04  -0.06
  16   1     0.04  -0.01  -0.01     0.11  -0.10   0.02    -0.02  -0.03   0.06
  17   8    -0.00   0.02   0.02     0.03   0.05   0.01    -0.01   0.05   0.02
  18   1     0.01   0.01   0.02    -0.13   0.09  -0.01     0.04  -0.07  -0.06
  19   1    -0.03  -0.01   0.01     0.02   0.02   0.01    -0.01  -0.02  -0.04
  20   8     0.02   0.03  -0.05    -0.03  -0.00   0.02     0.05   0.00  -0.06
  21   1    -0.11  -0.03   0.10     0.09   0.01  -0.09    -0.21  -0.05   0.20
  22   1     0.08  -0.15   0.10     0.01  -0.05   0.03    -0.01  -0.06  -0.13
  23   8     0.04   0.03  -0.11     0.01  -0.22  -0.16    -0.01  -0.03  -0.02
  24   1    -0.25   0.14   0.09    -0.22   0.57   0.43     0.02   0.24   0.18
  25   7     0.09  -0.13   0.09    -0.05   0.09   0.06     0.02  -0.06  -0.13
  26   1     0.39   0.27  -0.29     0.05  -0.00  -0.05    -0.24  -0.11   0.19
  27   1    -0.23   0.18  -0.17    -0.16  -0.18   0.02     0.35   0.28   0.03
  28   1    -0.49  -0.12   0.14     0.18   0.05  -0.12    -0.12  -0.02   0.19
                     25                     26                     27
                        a                      a                      a 
 Frequencies --   381.3472               391.8950               404.4429
 Red. masses --     2.0789                 2.5933                11.3812
 Frc consts  --     0.0000                 0.0000                 0.0000
 IR Inten    --     0.4161                 0.3055                 0.4467
 Raman Activ --     0.0000                 0.0000                 0.0000
 Depolar     --     0.0000                 0.0000                 0.0000
 Atom AN      X      Y      Z        X      Y      Z        X      Y      Z
   1   1    -0.02  -0.16   0.04    -0.04  -0.24   0.06     0.00  -0.12  -0.02
   2   8    -0.03  -0.06   0.01    -0.02  -0.08   0.04    -0.06  -0.12  -0.13
   3   1     0.02   0.30  -0.07     0.04   0.45  -0.09     0.01   0.32  -0.13
   4   1    -0.03   0.07  -0.06    -0.02   0.04  -0.11     0.04  -0.05   0.20
   5   8     0.05   0.03  -0.04    -0.00   0.08  -0.18     0.09  -0.12   0.62
   6   1    -0.04  -0.04  -0.03    -0.01   0.01  -0.08     0.03  -0.02   0.16
   7   1    -0.03  -0.05  -0.04    -0.06  -0.10  -0.09    -0.03  -0.04  -0.04
   8   8     0.02   0.03   0.04     0.02  -0.00   0.02     0.02   0.01   0.00
   9   1     0.04   0.19   0.01     0.09   0.06  -0.04     0.05   0.00  -0.02
  10   1     0.02  -0.04  -0.03    -0.05   0.07   0.07    -0.01   0.02  -0.03
  11   8     0.02  -0.05  -0.00    -0.03   0.02  -0.02    -0.04  -0.00  -0.01
  12   1     0.03   0.05   0.01    -0.06  -0.09  -0.04     0.02  -0.02   0.01
  13   1    -0.01  -0.03  -0.01    -0.02  -0.08   0.04     0.03   0.12  -0.16
  14   8    -0.02  -0.03   0.08     0.02  -0.07   0.17    -0.01   0.18  -0.47
  15   1    -0.01   0.04   0.04     0.04   0.03   0.05    -0.08  -0.01  -0.12
  16   1     0.08  -0.05  -0.02     0.08  -0.05  -0.01     0.06  -0.04  -0.01
  17   8     0.04  -0.02  -0.01     0.03   0.00  -0.01    -0.01  -0.02   0.02
  18   1    -0.16   0.13   0.02    -0.10   0.08   0.01    -0.08   0.06   0.02
  19   1     0.03  -0.01  -0.16    -0.02   0.01   0.07    -0.02  -0.00   0.03
  20   8     0.09   0.07  -0.16    -0.03  -0.00   0.05    -0.01   0.01   0.01
  21   1    -0.52  -0.15   0.52     0.20   0.05  -0.19     0.06   0.01  -0.06
  22   1    -0.00   0.03   0.02     0.03  -0.12  -0.05     0.02  -0.04   0.04
  23   8     0.03  -0.05   0.00     0.02  -0.04   0.02     0.03  -0.01   0.00
  24   1    -0.02   0.07   0.06    -0.10   0.21   0.17    -0.07   0.02   0.02
  25   7    -0.06   0.05  -0.00     0.00  -0.04  -0.13    -0.02   0.01  -0.02
  26   1    -0.06  -0.10   0.03    -0.21  -0.06   0.17    -0.01   0.00   0.00
  27   1    -0.06  -0.12   0.03     0.33   0.27   0.03     0.01   0.01  -0.00
  28   1     0.22   0.05  -0.06    -0.16  -0.02   0.15    -0.01   0.00  -0.00
                     28                     29                     30
                        a                      a                      a 
 Frequencies --   416.6778               425.0242               454.6071
 Red. masses --     1.8003                 1.3124                 1.8432
 Frc consts  --     0.0000                 0.0000                 0.0000
 IR Inten    --     0.2662                 0.2362                 0.1798
 Raman Activ --     0.0000                 0.0000                 0.0000
 Depolar     --     0.0000                 0.0000                 0.0000
 Atom AN      X      Y      Z        X      Y      Z        X      Y      Z
   1   1     0.06   0.07  -0.03    -0.08   0.05   0.01     0.03   0.00  -0.00
   2   8     0.01   0.05  -0.00     0.02   0.03   0.01     0.00   0.01   0.02
   3   1    -0.04  -0.22   0.01     0.04  -0.08   0.11    -0.01   0.01  -0.02
   4   1    -0.04   0.06  -0.04     0.05  -0.11  -0.02     0.03  -0.02   0.06
   5   8     0.05  -0.04   0.04    -0.04  -0.03  -0.02    -0.00   0.03  -0.07
   6   1    -0.04  -0.07   0.01     0.07   0.08   0.01     0.02   0.03  -0.05
   7   1     0.06   0.07   0.08    -0.00  -0.28  -0.07     0.01   0.01   0.01
   8   8     0.00   0.00  -0.03    -0.01  -0.06   0.01     0.00   0.01  -0.01
   9   1    -0.08  -0.11   0.03    -0.03   0.71   0.10    -0.01   0.02   0.01
  10   1    -0.03   0.08  -0.00     0.02  -0.02  -0.05     0.06  -0.28   0.11
  11   8    -0.03  -0.02   0.00     0.02   0.01  -0.05     0.05   0.07  -0.02
  12   1     0.00  -0.07   0.00     0.06  -0.08   0.02    -0.09   0.08  -0.06
  13   1    -0.09  -0.24  -0.10    -0.02  -0.05  -0.03     0.21   0.60   0.11
  14   8     0.02   0.07   0.02    -0.01   0.01  -0.00    -0.08  -0.12   0.07
  15   1     0.02   0.08   0.02    -0.01   0.01   0.01    -0.18  -0.21  -0.03
  16   1     0.29  -0.11  -0.13     0.09  -0.05  -0.02     0.06  -0.14   0.06
  17   8     0.11  -0.10  -0.04     0.02   0.00   0.00     0.07  -0.06  -0.01
  18   1    -0.54   0.49   0.16    -0.10   0.09   0.03    -0.25   0.11  -0.08
  19   1    -0.02  -0.00   0.04    -0.08  -0.01   0.19     0.21   0.22   0.11
  20   8    -0.00   0.01  -0.01    -0.04   0.01   0.02    -0.06   0.01  -0.01
  21   1     0.02  -0.01  -0.01     0.21   0.02  -0.19     0.12  -0.29   0.02
  22   1    -0.02   0.04   0.02    -0.03   0.07   0.01    -0.01   0.02  -0.00
  23   8    -0.07   0.07   0.04     0.01  -0.04  -0.04    -0.02   0.03  -0.00
  24   1     0.04  -0.17  -0.13     0.02   0.07   0.04     0.03  -0.07  -0.06
  25   7     0.02  -0.04  -0.01    -0.05   0.01   0.04     0.00  -0.00  -0.00
  26   1     0.01   0.02   0.00    -0.01  -0.09  -0.00     0.01   0.02  -0.00
  27   1     0.05   0.09  -0.01    -0.14  -0.19   0.02     0.01   0.02  -0.00
  28   1    -0.10  -0.02   0.05     0.25   0.04  -0.09    -0.04  -0.01   0.01
                     31                     32                     33
                        a                      a                      a 
 Frequencies --   458.8697               481.1649               489.4800
 Red. masses --     1.5202                 1.4688                 1.8222
 Frc consts  --     0.0000                 0.0000                 0.0000
 IR Inten    --     0.2215                 0.3134                 0.1835
 Raman Activ --     0.0000                 0.0000                 0.0000
 Depolar     --     0.0000                 0.0000                 0.0000
 Atom AN      X      Y      Z        X      Y      Z        X      Y      Z
   1   1    -0.25   0.09   0.03    -0.02   0.01   0.00     0.03  -0.05   0.01
   2   8     0.07   0.02  -0.04    -0.00  -0.01  -0.01     0.02   0.04   0.00
   3   1     0.13  -0.14   0.28     0.02   0.06   0.01    -0.02  -0.08  -0.01
   4   1     0.09  -0.16  -0.03    -0.09   0.16  -0.06    -0.16   0.27  -0.12
   5   8    -0.03  -0.00  -0.00     0.05   0.01  -0.02     0.11  -0.02   0.06
   6   1     0.12   0.13   0.07    -0.09  -0.12   0.13    -0.17  -0.23   0.14
   7   1    -0.39   0.07  -0.35     0.03  -0.08   0.01    -0.19   0.09  -0.16
   8   8    -0.05  -0.04   0.13    -0.00   0.00  -0.00    -0.02  -0.04   0.05
   9   1     0.50  -0.05  -0.25    -0.04   0.05   0.03     0.23   0.09  -0.10
  10   1    -0.01  -0.03   0.07     0.02   0.05  -0.11    -0.05   0.15  -0.02
  11   8     0.02  -0.00   0.01     0.02  -0.01   0.02    -0.03  -0.01  -0.01
  12   1    -0.09   0.10  -0.05     0.09   0.10   0.06     0.03  -0.22   0.01
  13   1     0.00   0.02  -0.04     0.07   0.27   0.39    -0.06  -0.11   0.32
  14   8    -0.02   0.01  -0.02    -0.09  -0.03  -0.04    -0.03   0.05  -0.11
  15   1    -0.05  -0.02  -0.00     0.19  -0.21  -0.11     0.30  -0.09  -0.10
  16   1     0.09  -0.05  -0.02    -0.02  -0.10   0.10    -0.12   0.03   0.06
  17   8     0.01  -0.00   0.00     0.04  -0.02  -0.01     0.00  -0.01  -0.01
  18   1    -0.08   0.08   0.03    -0.20   0.03  -0.12    -0.01  -0.05  -0.07
  19   1     0.02  -0.04  -0.20    -0.26  -0.30  -0.21     0.09   0.17   0.26
  20   8     0.00  -0.02   0.04     0.07  -0.05   0.06    -0.05   0.08  -0.06
  21   1    -0.06   0.12   0.01    -0.10   0.46  -0.11     0.08  -0.33   0.07
  22   1     0.01  -0.02   0.01    -0.02   0.03  -0.04    -0.03   0.04  -0.07
  23   8    -0.01   0.01  -0.01    -0.02   0.03   0.00    -0.03   0.00   0.01
  24   1    -0.03   0.02   0.01     0.08  -0.04  -0.03     0.11  -0.01  -0.01
  25   7     0.02  -0.00  -0.00     0.02  -0.01   0.01     0.01  -0.01   0.02
  26   1     0.01   0.03  -0.01     0.04   0.03  -0.02     0.05   0.04  -0.03
  27   1     0.00   0.00  -0.00    -0.01   0.01  -0.01    -0.04  -0.02  -0.01
  28   1    -0.04  -0.01  -0.01    -0.04  -0.01   0.01    -0.03  -0.01  -0.02
                     34                     35                     36
                        a                      a                      a 
 Frequencies --   502.1959               528.4956               560.4213
 Red. masses --     1.6851                 1.9282                 1.7367
 Frc consts  --     0.0000                 0.0000                 0.0000
 IR Inten    --     0.6047                 0.1341                 0.3680
 Raman Activ --     0.0000                 0.0000                 0.0000
 Depolar     --     0.0000                 0.0000                 0.0000
 Atom AN      X      Y      Z        X      Y      Z        X      Y      Z
   1   1     0.42  -0.27  -0.02     0.15   0.04  -0.03     0.04   0.08  -0.02
   2   8     0.02   0.09   0.10     0.01   0.02   0.05    -0.01  -0.04   0.02
   3   1    -0.22  -0.15  -0.37    -0.08  -0.13  -0.10    -0.01   0.07  -0.04
   4   1    -0.03   0.07   0.15    -0.07   0.14   0.05     0.03  -0.01   0.26
   5   8     0.00   0.02   0.01     0.04   0.00  -0.03    -0.02   0.01  -0.09
   6   1    -0.07  -0.05  -0.20    -0.10  -0.11  -0.01     0.00   0.01  -0.03
   7   1    -0.19   0.31  -0.10    -0.06   0.02  -0.05     0.02   0.00   0.03
   8   8    -0.03  -0.13   0.04    -0.02  -0.03   0.02    -0.01  -0.00  -0.01
   9   1     0.20   0.21  -0.07     0.07   0.10  -0.03    -0.03   0.02   0.01
  10   1     0.03  -0.08  -0.01     0.00  -0.02   0.02    -0.20   0.29   0.48
  11   8    -0.00   0.01  -0.02     0.01   0.01  -0.01     0.16   0.09   0.01
  12   1     0.00   0.07   0.00    -0.02   0.02  -0.01    -0.32  -0.50  -0.22
  13   1     0.02   0.03  -0.18     0.04   0.13   0.12     0.02   0.02   0.00
  14   8     0.01  -0.03   0.04    -0.03  -0.00   0.01     0.04   0.01  -0.01
  15   1    -0.15   0.09   0.06     0.03  -0.11  -0.04    -0.06  -0.20  -0.07
  16   1    -0.03  -0.03   0.06     0.08   0.21  -0.27     0.01  -0.00  -0.00
  17   8     0.02   0.02   0.02    -0.07  -0.09  -0.05     0.00  -0.00   0.00
  18   1    -0.03  -0.03  -0.06     0.19   0.09   0.29     0.00   0.00   0.01
  19   1    -0.08  -0.09  -0.06    -0.02  -0.03  -0.02    -0.02  -0.05  -0.10
  20   8     0.01  -0.02   0.03     0.00  -0.00   0.01     0.01   0.00  -0.00
  21   1     0.01   0.16  -0.08     0.01   0.05  -0.03    -0.08   0.11   0.02
  22   1    -0.05   0.07  -0.11     0.16  -0.18   0.37    -0.03   0.08   0.00
  23   8    -0.04  -0.02   0.01     0.15   0.05   0.01    -0.01  -0.02  -0.01
  24   1     0.17   0.03   0.02    -0.47  -0.15  -0.09     0.06  -0.02  -0.01
  25   7     0.02  -0.02   0.03    -0.08   0.04  -0.08    -0.02  -0.01   0.03
  26   1     0.02  -0.01  -0.01    -0.12  -0.10   0.07     0.05   0.01  -0.04
  27   1    -0.03  -0.01  -0.01     0.05  -0.01   0.02    -0.07  -0.06  -0.00
  28   1     0.01  -0.00   0.01     0.11   0.03  -0.00     0.05   0.00  -0.05
                     37                     38                     39
                        a                      a                      a 
 Frequencies --   563.1265               579.6731               593.6856
 Red. masses --     1.8146                 2.1193                 1.9184
 Frc consts  --     0.0000                 0.0000                 0.0000
 IR Inten    --     0.3583                 0.3790                 0.6818
 Raman Activ --     0.0000                 0.0000                 0.0000
 Depolar     --     0.0000                 0.0000                 0.0000
 Atom AN      X      Y      Z        X      Y      Z        X      Y      Z
   1   1    -0.05   0.16  -0.02    -0.11   0.11  -0.00     0.09  -0.03  -0.01
   2   8    -0.01  -0.01   0.00     0.00  -0.01  -0.02     0.01   0.05   0.03
   3   1     0.04   0.04   0.08     0.06  -0.03   0.13    -0.05  -0.10  -0.07
   4   1    -0.17   0.35   0.16    -0.06   0.13   0.04    -0.02   0.02  -0.10
   5   8     0.17  -0.05  -0.02     0.09  -0.02  -0.03     0.00  -0.01   0.06
   6   1    -0.24  -0.31  -0.05    -0.10  -0.12  -0.11    -0.02  -0.01  -0.04
   7   1     0.01  -0.45  -0.11    -0.05  -0.06  -0.07     0.02  -0.20  -0.03
   8   8    -0.03   0.08   0.02     0.00   0.03   0.02    -0.02   0.04  -0.00
   9   1     0.03   0.03  -0.02     0.08  -0.11  -0.05    -0.01   0.03   0.00
  10   1     0.05  -0.24   0.13    -0.02   0.17  -0.15    -0.04   0.01   0.14
  11   8     0.02  -0.01   0.00    -0.05   0.11  -0.03     0.03  -0.06   0.01
  12   1    -0.15   0.19  -0.08     0.24  -0.36   0.12    -0.18   0.14  -0.10
  13   1    -0.02  -0.06  -0.22     0.10   0.23  -0.29    -0.07  -0.21  -0.04
  14   8     0.01   0.03   0.02    -0.00  -0.13   0.11     0.02   0.03  -0.04
  15   1    -0.13   0.08   0.05    -0.26   0.18   0.12     0.06   0.10   0.02
  16   1    -0.08   0.15  -0.07    -0.10  -0.06   0.13    -0.14  -0.23   0.34
  17   8     0.01  -0.03  -0.03     0.05   0.01   0.03     0.07   0.07   0.08
  18   1     0.07   0.02   0.09    -0.08  -0.07  -0.16    -0.23  -0.16  -0.40
  19   1     0.08   0.03  -0.12    -0.26  -0.14   0.27     0.14   0.08  -0.16
  20   8    -0.02  -0.02   0.04     0.06   0.04  -0.07    -0.03  -0.02   0.04
  21   1     0.03   0.05  -0.05    -0.05  -0.00   0.05     0.03   0.01  -0.03
  22   1    -0.05   0.06  -0.10     0.06  -0.07   0.09     0.12  -0.16   0.20
  23   8    -0.06  -0.03   0.02     0.04   0.04  -0.01     0.10   0.10  -0.04
  24   1     0.15   0.02   0.02    -0.14  -0.08  -0.06    -0.31  -0.14  -0.12
  25   7     0.04  -0.01   0.02    -0.02   0.01  -0.01    -0.04   0.03  -0.03
  26   1     0.06   0.08  -0.03    -0.02  -0.01   0.01    -0.04  -0.03   0.01
  27   1     0.00   0.03  -0.01     0.01   0.01   0.00    -0.01  -0.03   0.01
  28   1    -0.10  -0.02  -0.00     0.00   0.00   0.00     0.05   0.02  -0.03
                     40                     41                     42
                        a                      a                      a 
 Frequencies --   618.8571               654.9807               694.2115
 Red. masses --     2.0329                 2.1108                 1.7835
 Frc consts  --     0.0000                 0.0000                 0.0000
 IR Inten    --     0.3626                 0.7243                 0.5594
 Raman Activ --     0.0000                 0.0000                 0.0000
 Depolar     --     0.0000                 0.0000                 0.0000
 Atom AN      X      Y      Z        X      Y      Z        X      Y      Z
   1   1     0.14   0.36  -0.09     0.14  -0.30   0.04     0.30   0.52  -0.15
   2   8    -0.01  -0.09   0.10     0.01   0.16   0.02     0.03  -0.12   0.16
   3   1    -0.03   0.16  -0.12    -0.11  -0.22  -0.14    -0.12   0.17  -0.31
   4   1     0.11  -0.09   0.60     0.05  -0.12  -0.16     0.00  -0.10  -0.44
   5   8    -0.08   0.01  -0.16    -0.05   0.04   0.12    -0.04  -0.03  -0.03
   6   1     0.02   0.06  -0.19     0.06   0.12  -0.21     0.09   0.05   0.37
   7   1    -0.05  -0.17  -0.09     0.02  -0.60  -0.14    -0.04  -0.11  -0.06
   8   8    -0.03   0.04   0.03    -0.02   0.14   0.03    -0.04   0.02   0.01
   9   1     0.11  -0.06  -0.07     0.06  -0.21  -0.06     0.10  -0.03  -0.06
  10   1     0.02   0.08  -0.23    -0.07   0.26  -0.07     0.00  -0.03   0.02
  11   8    -0.06  -0.05  -0.01    -0.01  -0.02   0.02    -0.01   0.03  -0.00
  12   1     0.17   0.09   0.11     0.06  -0.09   0.04     0.01  -0.09   0.00
  13   1    -0.06  -0.16   0.16     0.06   0.15   0.08     0.02   0.06  -0.09
  14   8     0.03   0.06   0.02    -0.01  -0.07  -0.01    -0.03  -0.03   0.02
  15   1     0.11  -0.12  -0.06     0.03   0.01   0.00    -0.06   0.07   0.04
  16   1     0.09  -0.12   0.04     0.10   0.00  -0.09    -0.03   0.03  -0.00
  17   8    -0.00   0.03   0.04    -0.04  -0.01  -0.02     0.01  -0.00   0.00
  18   1    -0.03  -0.02  -0.06     0.07   0.03   0.10     0.00   0.01   0.01
  19   1     0.02   0.03   0.05     0.05   0.03  -0.05    -0.00  -0.01  -0.02
  20   8     0.00   0.01  -0.01    -0.00  -0.00  -0.01    -0.01   0.00  -0.01
  21   1     0.00  -0.08   0.04    -0.03  -0.03   0.04    -0.01   0.01   0.00
  22   1    -0.01   0.03   0.00    -0.03   0.05  -0.00    -0.03   0.08  -0.00
  23   8    -0.01   0.01  -0.01    -0.03  -0.01   0.00     0.00  -0.03   0.01
  24   1    -0.00  -0.05  -0.04     0.07   0.04   0.03     0.04   0.01   0.01
  25   7     0.01   0.01  -0.02     0.03  -0.01   0.02     0.00  -0.00  -0.00
  26   1    -0.02   0.00   0.01     0.06   0.05  -0.04     0.00   0.00  -0.00
  27   1     0.03   0.02   0.00    -0.03  -0.03  -0.00     0.01   0.01  -0.00
  28   1    -0.02  -0.00   0.01    -0.05  -0.02  -0.03    -0.00  -0.00   0.00
                     43                     44                     45
                        a                      a                      a 
 Frequencies --   716.6763               779.1348               808.2655
 Red. masses --     1.9432                 1.9606                 2.0252
 Frc consts  --     0.0000                 0.0000                 0.0000
 IR Inten    --     0.4155                 1.1482                 1.0664
 Raman Activ --     0.0000                 0.0000                 0.0000
 Depolar     --     0.0000                 0.0000                 0.0000
 Atom AN      X      Y      Z        X      Y      Z        X      Y      Z
   1   1     0.03   0.01  -0.01    -0.05   0.18  -0.03     0.03  -0.13   0.02
   2   8     0.01   0.00   0.02    -0.01  -0.06  -0.00     0.00   0.04  -0.01
   3   1    -0.02  -0.01  -0.03     0.05   0.08   0.06    -0.02  -0.06  -0.02
   4   1     0.07  -0.12   0.06    -0.04   0.05  -0.05    -0.02   0.06   0.08
   5   8    -0.05  -0.00   0.00     0.04  -0.04   0.08     0.01   0.02  -0.13
   6   1     0.07   0.10  -0.08    -0.07  -0.06  -0.23     0.01  -0.04   0.36
   7   1    -0.00  -0.04  -0.01    -0.00   0.18   0.05     0.02  -0.08  -0.00
   8   8    -0.00   0.01   0.00     0.00  -0.06  -0.01    -0.00   0.02   0.00
   9   1     0.01  -0.02  -0.01    -0.04   0.18   0.04    -0.00  -0.00   0.00
  10   1     0.00   0.00  -0.02    -0.08   0.36  -0.17     0.06  -0.12  -0.09
  11   8    -0.00   0.01  -0.00    -0.02  -0.09   0.06    -0.05   0.07   0.02
  12   1     0.03  -0.01   0.01     0.13  -0.09   0.09     0.17  -0.27   0.10
  13   1    -0.01  -0.03   0.05     0.07   0.18  -0.01    -0.02  -0.06  -0.11
  14   8     0.01   0.02  -0.01    -0.02  -0.11  -0.02     0.01   0.05   0.08
  15   1    -0.01  -0.07  -0.02     0.03   0.21   0.08    -0.10  -0.16  -0.04
  16   1    -0.59   0.46   0.03    -0.03   0.04  -0.02     0.23  -0.16  -0.02
  17   8     0.17  -0.15  -0.04     0.01  -0.02  -0.01    -0.06   0.05   0.01
  18   1    -0.27   0.22   0.06    -0.01   0.03   0.03     0.09  -0.07  -0.01
  19   1    -0.01  -0.01   0.00     0.41   0.21  -0.47     0.18   0.08  -0.23
  20   8     0.00  -0.00  -0.01    -0.11   0.00   0.08    -0.04  -0.00   0.02
  21   1    -0.01   0.01   0.00     0.08   0.05  -0.09     0.01   0.04  -0.03
  22   1     0.09  -0.35  -0.23    -0.01   0.01  -0.01     0.11  -0.48  -0.36
  23   8     0.03   0.02   0.05    -0.00  -0.01  -0.00    -0.04   0.11   0.08
  24   1    -0.01   0.04   0.04     0.02   0.02   0.01     0.01  -0.07  -0.05
  25   7    -0.01   0.04   0.03    -0.01  -0.01   0.00    -0.01   0.05   0.04
  26   1     0.01  -0.00  -0.01     0.01  -0.00  -0.01     0.01  -0.01  -0.00
  27   1    -0.04  -0.04   0.00    -0.01  -0.00  -0.00    -0.05  -0.04   0.01
  28   1     0.04   0.02  -0.02     0.00  -0.00   0.01     0.06   0.02  -0.02
                     46                     47                     48
                        a                      a                      a 
 Frequencies --   824.4994               848.2452               927.2619
 Red. masses --     1.9932                 2.2958                 2.1388
 Frc consts  --     0.0000                 0.0000                 0.0000
 IR Inten    --     0.5279                 0.5989                 0.8501
 Raman Activ --     0.0000                 0.0000                 0.0000
 Depolar     --     0.0000                 0.0000                 0.0000
 Atom AN      X      Y      Z        X      Y      Z        X      Y      Z
   1   1    -0.01  -0.11   0.02    -0.01  -0.23   0.05    -0.02   0.10  -0.02
   2   8     0.00   0.03  -0.01     0.01   0.05  -0.01    -0.00  -0.02   0.00
   3   1    -0.01  -0.05  -0.00    -0.01  -0.06  -0.01     0.02   0.04   0.02
   4   1     0.03  -0.04   0.09    -0.01   0.05   0.16    -0.05   0.04  -0.33
   5   8    -0.03   0.01  -0.02    -0.01   0.02  -0.20     0.04   0.02   0.18
   6   1     0.04   0.04   0.02     0.05  -0.01   0.50    -0.04   0.00  -0.40
   7   1     0.00  -0.05  -0.01     0.01  -0.04  -0.00    -0.02   0.05  -0.00
   8   8     0.00   0.01   0.01     0.01   0.00   0.00     0.01  -0.01   0.00
   9   1    -0.00  -0.05  -0.00    -0.02   0.02   0.01    -0.00   0.01   0.00
  10   1     0.16  -0.49  -0.01    -0.08   0.32  -0.14     0.03  -0.05  -0.06
  11   8    -0.08   0.19   0.02    -0.01  -0.10  -0.01    -0.03   0.02  -0.02
  12   1     0.19  -0.48   0.11     0.08   0.17   0.05     0.12  -0.05   0.07
  13   1    -0.04  -0.08   0.11     0.00  -0.02  -0.20    -0.07  -0.19  -0.12
  14   8    -0.02   0.04  -0.06     0.03   0.03   0.12     0.06   0.15   0.11
  15   1     0.10   0.10   0.01    -0.23  -0.25  -0.05    -0.26  -0.65  -0.20
  16   1    -0.14   0.08   0.04    -0.18   0.11   0.04    -0.01  -0.01   0.03
  17   8     0.04  -0.02   0.01     0.06  -0.02   0.01    -0.01   0.02   0.01
  18   1    -0.07   0.02  -0.02    -0.08   0.02  -0.03     0.01  -0.04  -0.03
  19   1     0.13   0.04  -0.22     0.10   0.07  -0.07     0.04   0.02  -0.05
  20   8    -0.03  -0.02   0.02    -0.03   0.01   0.01    -0.00  -0.01   0.01
  21   1    -0.02   0.10  -0.03     0.04  -0.04  -0.02     0.00   0.02  -0.01
  22   1    -0.06   0.32   0.27    -0.06   0.30   0.25    -0.01   0.06   0.05
  23   8     0.03  -0.07  -0.05     0.03  -0.07  -0.05     0.01  -0.01  -0.01
  24   1    -0.04   0.02   0.02    -0.03   0.03   0.03    -0.01   0.02   0.01
  25   7     0.02  -0.03  -0.03     0.02  -0.03  -0.03     0.01  -0.00  -0.02
  26   1    -0.03  -0.01   0.03    -0.01  -0.01   0.01    -0.01   0.00   0.01
  27   1     0.06   0.06  -0.00     0.03   0.03  -0.01     0.01   0.00  -0.00
  28   1    -0.05  -0.01   0.03    -0.06  -0.02   0.03    -0.03  -0.01   0.01
                     49                     50                     51
                        a                      a                      a 
 Frequencies --  1253.3283              1547.5145              1550.7117
 Red. masses --     3.1943                 2.1391                 2.0384
 Frc consts  --     0.0000                 0.0000                 0.0000
 IR Inten    --     0.7166                 0.5242                 0.7011
 Raman Activ --     0.0000                 0.0000                 0.0000
 Depolar     --     0.0000                 0.0000                 0.0000
 Atom AN      X      Y      Z        X      Y      Z        X      Y      Z
   1   1    -0.00  -0.01   0.00    -0.05  -0.01   0.02     0.12  -0.01  -0.03
   2   8     0.00   0.00   0.00     0.02   0.00   0.00    -0.04  -0.01  -0.02
   3   1    -0.00  -0.01  -0.00    -0.02  -0.01  -0.04     0.06   0.03   0.10
   4   1     0.00  -0.00  -0.00     0.33  -0.52  -0.04     0.08  -0.13  -0.01
   5   8    -0.00   0.00   0.00     0.03   0.26  -0.01     0.01   0.06  -0.00
   6   1     0.00   0.01  -0.00    -0.45  -0.50   0.05    -0.11  -0.12   0.02
   7   1    -0.02  -0.01  -0.02    -0.09   0.01  -0.10     0.14  -0.01   0.14
   8   8     0.01  -0.00   0.00     0.05   0.00   0.01    -0.07  -0.01  -0.01
   9   1    -0.01   0.00   0.01    -0.11  -0.01   0.06     0.16   0.03  -0.08
  10   1     0.00  -0.01  -0.01    -0.01   0.01   0.02    -0.01  -0.01   0.03
  11   8    -0.01  -0.01  -0.00    -0.00  -0.01  -0.01    -0.01   0.00  -0.01
  12   1     0.02   0.01   0.01     0.02   0.01   0.01     0.03   0.00   0.02
  13   1    -0.00  -0.01   0.00    -0.00  -0.01   0.03    -0.00  -0.01   0.02
  14   8     0.00   0.00   0.00     0.01   0.00   0.00     0.01   0.00  -0.00
  15   1    -0.01  -0.02  -0.00    -0.04  -0.01  -0.01    -0.03   0.00   0.00
  16   1    -0.00   0.00   0.00    -0.03  -0.03   0.04    -0.01  -0.01   0.01
  17   8     0.00   0.00   0.00     0.00  -0.00  -0.02     0.00   0.01   0.00
  18   1    -0.00  -0.00  -0.00     0.02   0.02   0.04     0.00   0.00   0.00
  19   1     0.00   0.00  -0.01     0.04   0.04   0.03    -0.05  -0.05  -0.07
  20   8    -0.00   0.00   0.00    -0.00  -0.02  -0.01     0.00   0.03   0.02
  21   1     0.00  -0.00  -0.00    -0.02   0.05  -0.01     0.04  -0.08   0.00
  22   1    -0.02  -0.01   0.02    -0.04   0.07  -0.10     0.21  -0.34   0.54
  23   8     0.02   0.01  -0.01     0.03  -0.01   0.02    -0.18   0.05  -0.14
  24   1     0.01   0.00  -0.00    -0.10  -0.02  -0.01     0.53   0.10   0.05
  25   7    -0.34  -0.21   0.08    -0.00   0.00  -0.01    -0.01   0.02   0.01
  26   1     0.33   0.31  -0.26     0.01   0.01  -0.01    -0.01  -0.06  -0.00
  27   1     0.41   0.36   0.06     0.01  -0.02   0.01     0.02   0.03  -0.00
  28   1     0.49   0.09  -0.10    -0.00   0.00   0.03    -0.01  -0.01  -0.06
                     52                     53                     54
                        a                      a                      a 
 Frequencies --  1566.3005              1574.0496              1580.9588
 Red. masses --     2.0448                 1.8199                 1.8211
 Frc consts  --     0.0000                 0.0000                 0.0000
 IR Inten    --     0.4007                 0.3062                 0.2553
 Raman Activ --     0.0000                 0.0000                 0.0000
 Depolar     --     0.0000                 0.0000                 0.0000
 Atom AN      X      Y      Z        X      Y      Z        X      Y      Z
   1   1     0.05  -0.03  -0.00     0.03  -0.01  -0.00    -0.01   0.00   0.00
   2   8    -0.02   0.00  -0.02    -0.01   0.00  -0.01     0.00   0.00   0.00
   3   1     0.03  -0.00   0.05     0.02   0.00   0.03    -0.01  -0.00  -0.01
   4   1     0.02  -0.04  -0.01     0.00  -0.01  -0.00    -0.00   0.00  -0.00
   5   8     0.00   0.02   0.01     0.00   0.00   0.00    -0.00  -0.00  -0.00
   6   1    -0.04  -0.04  -0.00    -0.00  -0.00   0.00     0.00   0.01   0.00
   7   1     0.20  -0.02   0.21     0.06  -0.01   0.06     0.03   0.00   0.03
   8   8    -0.10  -0.01  -0.02    -0.03   0.00  -0.01    -0.01  -0.00  -0.00
   9   1     0.22   0.05  -0.12     0.06   0.01  -0.03     0.04   0.03  -0.02
  10   1    -0.08  -0.00   0.26    -0.03  -0.00   0.09     0.07  -0.01  -0.22
  11   8    -0.03  -0.02  -0.09    -0.01  -0.00  -0.03     0.03   0.02   0.08
  12   1     0.21   0.06   0.13     0.07   0.01   0.04    -0.18  -0.06  -0.11
  13   1    -0.01  -0.02   0.06    -0.00  -0.01   0.03    -0.00  -0.01   0.02
  14   8     0.02   0.00  -0.02     0.01  -0.00  -0.01     0.00   0.00  -0.00
  15   1    -0.06   0.02   0.02    -0.03   0.01   0.01    -0.03  -0.00   0.00
  16   1    -0.01  -0.02   0.03     0.00   0.00  -0.01     0.01   0.01  -0.01
  17   8    -0.00  -0.00  -0.02    -0.00  -0.00   0.00    -0.00  -0.00   0.01
  18   1     0.01   0.01   0.03    -0.00  -0.00  -0.00    -0.01  -0.01  -0.02
  19   1    -0.21  -0.25  -0.31    -0.10  -0.12  -0.14     0.03   0.04   0.05
  20   8     0.00   0.16   0.07     0.00   0.07   0.03     0.00  -0.03  -0.01
  21   1     0.20  -0.38   0.01     0.09  -0.17   0.00    -0.03   0.06   0.00
  22   1    -0.08   0.13  -0.19    -0.00   0.01  -0.00     0.00  -0.00   0.01
  23   8     0.07  -0.02   0.05     0.00  -0.00  -0.00    -0.00   0.00  -0.00
  24   1    -0.19  -0.03  -0.01    -0.01   0.00   0.00     0.01   0.00  -0.00
  25   7    -0.02   0.06   0.07    -0.03  -0.05  -0.22    -0.13   0.19  -0.04
  26   1     0.08  -0.22  -0.11    -0.03   0.46   0.09     0.28  -0.31  -0.35
  27   1     0.10   0.04   0.05    -0.02  -0.36   0.09     0.42  -0.40   0.34
  28   1    -0.11  -0.03  -0.19     0.16   0.08   0.66    -0.22  -0.00   0.18
                     55                     56                     57
                        a                      a                      a 
 Frequencies --  1588.8371              1600.8492              1605.6639
 Red. masses --     2.0562                 2.0824                 2.0153
 Frc consts  --     0.0000                 0.0000                 0.0000
 IR Inten    --     0.2317                 0.7556                 0.6445
 Raman Activ --     0.0000                 0.0000                 0.0000
 Depolar     --     0.0000                 0.0000                 0.0000
 Atom AN      X      Y      Z        X      Y      Z        X      Y      Z
   1   1     0.30  -0.06  -0.05     0.15  -0.02  -0.03     0.19  -0.01  -0.04
   2   8    -0.11   0.00  -0.06    -0.05  -0.00  -0.02    -0.06  -0.00  -0.02
   3   1     0.13   0.04   0.26     0.06   0.02   0.13     0.07   0.03   0.14
   4   1     0.03  -0.05  -0.02    -0.01   0.01   0.00    -0.04   0.06  -0.02
   5   8     0.00   0.03   0.00    -0.01  -0.01  -0.00     0.01  -0.03  -0.01
   6   1    -0.04  -0.04   0.01     0.01   0.02   0.00     0.04   0.04   0.03
   7   1     0.28  -0.03   0.29     0.11  -0.01   0.12    -0.15   0.01  -0.16
   8   8    -0.15  -0.01  -0.03    -0.06  -0.00  -0.01     0.08   0.00   0.01
   9   1     0.34   0.05  -0.18     0.15   0.03  -0.08    -0.18  -0.03   0.09
  10   1     0.10   0.00  -0.35    -0.14   0.02   0.45    -0.02   0.03   0.05
  11   8     0.04   0.03   0.12    -0.07  -0.04  -0.17    -0.01  -0.01  -0.02
  12   1    -0.26  -0.09  -0.16     0.37   0.13   0.22     0.05   0.02   0.03
  13   1    -0.01  -0.03   0.07     0.00   0.01  -0.03    -0.05  -0.15   0.53
  14   8     0.02   0.00  -0.01    -0.01  -0.00   0.00     0.17  -0.01  -0.16
  15   1    -0.11  -0.00   0.02     0.06   0.01  -0.00    -0.63   0.16   0.14
  16   1    -0.05  -0.08   0.11    -0.01  -0.01   0.01     0.01  -0.04   0.04
  17   8    -0.00   0.00  -0.05     0.00   0.00  -0.01    -0.01   0.00  -0.02
  18   1     0.05   0.05   0.11     0.01   0.01   0.02     0.03   0.02   0.04
  19   1     0.06   0.08   0.10     0.21   0.26   0.30     0.01   0.01   0.01
  20   8    -0.00  -0.05  -0.02    -0.00  -0.15  -0.07    -0.00  -0.00  -0.00
  21   1    -0.06   0.11   0.00    -0.19   0.36  -0.00    -0.00   0.01  -0.00
  22   1    -0.06   0.10  -0.13    -0.02   0.02  -0.03     0.01  -0.02   0.01
  23   8     0.05  -0.01   0.03     0.01  -0.00   0.01    -0.01   0.01  -0.00
  24   1    -0.15  -0.02  -0.01    -0.03  -0.00   0.00     0.01   0.00   0.00
  25   7     0.02  -0.06   0.00    -0.03   0.03  -0.02     0.00   0.01   0.00
  26   1    -0.06   0.11   0.08     0.05  -0.02  -0.06     0.00  -0.03  -0.01
  27   1    -0.09   0.09  -0.08     0.07  -0.09   0.06     0.01  -0.01   0.01
  28   1     0.07   0.01  -0.01    -0.02   0.00   0.06    -0.02  -0.00  -0.01
                     58                     59                     60
                        a                      a                      a 
 Frequencies --  1610.9264              1620.6967              2884.8733
 Red. masses --     2.0074                 2.0285                 1.9129
 Frc consts  --     0.0000                 0.0000                 0.0000
 IR Inten    --     0.2994                 0.4426                 1.2182
 Raman Activ --     0.0000                 0.0000                 0.0000
 Depolar     --     0.0000                 0.0000                 0.0000
 Atom AN      X      Y      Z        X      Y      Z        X      Y      Z
   1   1     0.43  -0.04  -0.09     0.37  -0.04  -0.07     0.01  -0.00   0.00
   2   8    -0.14  -0.00  -0.06    -0.12  -0.00  -0.05    -0.00   0.00  -0.00
   3   1     0.17   0.06   0.34     0.15   0.05   0.29     0.00  -0.00   0.00
   4   1    -0.01   0.01   0.00     0.04  -0.06  -0.02     0.00  -0.00  -0.00
   5   8    -0.02  -0.01  -0.00    -0.01   0.02   0.01    -0.00   0.00   0.00
   6   1     0.04   0.04   0.00    -0.02  -0.03   0.01     0.00   0.00  -0.00
   7   1    -0.21   0.00  -0.22    -0.07  -0.00  -0.07    -0.01   0.00   0.01
   8   8     0.11   0.01   0.02     0.04   0.00   0.01     0.00  -0.00  -0.00
   9   1    -0.25  -0.05   0.13    -0.08  -0.02   0.04     0.00   0.01   0.00
  10   1    -0.00  -0.02   0.03     0.01  -0.00  -0.02    -0.03  -0.01  -0.01
  11   8    -0.00   0.00  -0.01     0.00   0.00   0.01     0.01   0.00   0.00
  12   1     0.02  -0.00   0.01    -0.02  -0.01  -0.01     0.00   0.00   0.00
  13   1     0.02   0.06  -0.22     0.01   0.02  -0.06    -0.00   0.00  -0.01
  14   8    -0.07   0.00   0.07    -0.02   0.00   0.02    -0.00   0.00  -0.00
  15   1     0.26  -0.06  -0.06     0.09  -0.02  -0.01     0.01  -0.01   0.02
  16   1    -0.14  -0.21   0.28     0.20   0.34  -0.44     0.06   0.07   0.07
  17   8     0.00   0.01  -0.13     0.00  -0.03   0.21    -0.02  -0.02  -0.02
  18   1     0.12   0.14   0.27    -0.20  -0.21  -0.44    -0.00  -0.00  -0.01
  19   1    -0.06  -0.07  -0.08    -0.02  -0.03  -0.03     0.00  -0.00   0.00
  20   8     0.00   0.04   0.02     0.00   0.01   0.01    -0.00   0.00  -0.00
  21   1     0.05  -0.09   0.00     0.02  -0.04   0.00    -0.00   0.00   0.00
  22   1     0.00   0.00   0.01    -0.03   0.03  -0.05     0.89   0.33  -0.16
  23   8     0.01   0.00  -0.01     0.01  -0.01   0.01    -0.22  -0.08   0.05
  24   1    -0.01   0.00   0.00    -0.03   0.01   0.01    -0.03  -0.01   0.00
  25   7    -0.01   0.02  -0.00    -0.00   0.00   0.01    -0.00   0.00   0.00
  26   1     0.02  -0.05  -0.04     0.00  -0.02  -0.00     0.02   0.01   0.00
  27   1     0.04  -0.04   0.03    -0.00   0.01  -0.00     0.02   0.01  -0.02
  28   1    -0.03  -0.00   0.00    -0.01  -0.00  -0.02     0.01   0.01  -0.00
                     61                     62                     63
                        a                      a                      a 
 Frequencies --  3037.0283              3124.6909              3180.5099
 Red. masses --     1.8239                 1.8642                 1.9113
 Frc consts  --     0.0000                 0.0000                 0.0000
 IR Inten    --     1.0658                 0.4859                 0.5058
 Raman Activ --     0.0000                 0.0000                 0.0000
 Depolar     --     0.0000                 0.0000                 0.0000
 Atom AN      X      Y      Z        X      Y      Z        X      Y      Z
   1   1    -0.02  -0.02  -0.09     0.04   0.04   0.18    -0.02  -0.01  -0.08
   2   8     0.00   0.00   0.02    -0.01  -0.01  -0.05     0.00   0.00   0.02
   3   1     0.01   0.00   0.00    -0.01  -0.00  -0.00     0.00   0.00  -0.00
   4   1     0.04   0.02  -0.00    -0.04  -0.06   0.00    -0.01  -0.01   0.00
   5   8     0.03  -0.05   0.00     0.18  -0.14  -0.02     0.00  -0.00   0.00
   6   1    -0.17   0.16   0.02    -0.69   0.61   0.08    -0.01   0.01   0.00
   7   1    -0.00   0.00   0.01     0.01   0.00  -0.01     0.00   0.00  -0.00
   8   8    -0.00  -0.00  -0.00    -0.00  -0.00   0.00     0.00  -0.00   0.00
   9   1     0.01   0.00   0.00    -0.00  -0.00  -0.00    -0.00   0.00  -0.00
  10   1     0.22   0.07   0.06    -0.09  -0.03  -0.02    -0.42  -0.13  -0.11
  11   8    -0.06  -0.02  -0.01     0.03   0.01   0.00     0.11   0.03   0.01
  12   1     0.00  -0.00  -0.02    -0.01   0.00   0.02    -0.03  -0.00   0.07
  13   1    -0.06   0.02   0.03     0.02  -0.01  -0.01    -0.04   0.01  -0.00
  14   8     0.05  -0.08   0.19    -0.01   0.02  -0.04     0.01  -0.01   0.02
  15   1    -0.12   0.32  -0.84     0.03  -0.07   0.17    -0.01   0.03  -0.08
  16   1     0.02   0.02   0.02    -0.02  -0.02  -0.02     0.41   0.48   0.54
  17   8    -0.01  -0.01  -0.00     0.00   0.00   0.00    -0.11  -0.13  -0.12
  18   1     0.00   0.00  -0.01     0.00  -0.00   0.00     0.02   0.03  -0.06
  19   1     0.04  -0.04   0.01    -0.00   0.01  -0.00    -0.07   0.08  -0.03
  20   8    -0.01   0.01  -0.00     0.00  -0.00   0.00     0.02  -0.02   0.01
  21   1     0.00   0.00  -0.00    -0.00   0.00  -0.00     0.00  -0.00  -0.00
  22   1     0.02   0.01  -0.01    -0.00  -0.00   0.00    -0.10  -0.04   0.03
  23   8    -0.00  -0.00   0.00     0.00  -0.00   0.00     0.02   0.01  -0.01
  24   1    -0.00   0.00   0.00     0.00   0.00  -0.00     0.01  -0.00   0.01
  25   7     0.00  -0.00  -0.00    -0.00   0.00   0.00     0.00   0.00   0.00
  26   1     0.00   0.00  -0.00     0.00  -0.00   0.00    -0.00  -0.00   0.00
  27   1    -0.00   0.00   0.01     0.00  -0.00  -0.00     0.01  -0.01  -0.02
  28   1     0.00   0.00  -0.00    -0.00  -0.00   0.00    -0.00   0.00   0.00
                     64                     65                     66
                        a                      a                      a 
 Frequencies --  3195.6267              3232.1807              3269.6681
 Red. masses --     1.9199                 1.8867                 1.8991
 Frc consts  --     0.0000                 0.0000                 0.0000
 IR Inten    --     1.2333                 0.7946                 0.6770
 Raman Activ --     0.0000                 0.0000                 0.0000
 Depolar     --     0.0000                 0.0000                 0.0000
 Atom AN      X      Y      Z        X      Y      Z        X      Y      Z
   1   1     0.00   0.00   0.02     0.18   0.19   0.88     0.00   0.00   0.00
   2   8    -0.00  -0.00  -0.01    -0.02  -0.05  -0.22     0.00  -0.00  -0.00
   3   1    -0.00  -0.00   0.00    -0.08   0.01   0.00    -0.00   0.00   0.00
   4   1     0.03   0.03  -0.01     0.16   0.10  -0.02     0.00   0.00   0.00
   5   8    -0.02   0.00   0.01    -0.07  -0.01   0.01     0.00  -0.00  -0.00
   6   1     0.04  -0.04  -0.01     0.11  -0.09  -0.01    -0.01   0.01   0.00
   7   1     0.00   0.00  -0.00     0.05   0.01  -0.05    -0.01   0.00   0.00
   8   8    -0.00  -0.00   0.00    -0.01  -0.00   0.02    -0.00  -0.00  -0.01
   9   1    -0.00   0.00  -0.00    -0.01   0.00  -0.01     0.01   0.00   0.02
  10   1    -0.70  -0.23  -0.19     0.02   0.01   0.01     0.14   0.05   0.05
  11   8     0.19   0.06   0.02    -0.01  -0.00  -0.00    -0.09  -0.01   0.08
  12   1    -0.05  -0.00   0.13     0.00   0.00  -0.00     0.21   0.01  -0.35
  13   1    -0.05   0.01   0.01    -0.01   0.00   0.00     0.01   0.00   0.00
  14   8     0.02  -0.02   0.05     0.01  -0.01   0.02    -0.00  -0.00  -0.00
  15   1    -0.03   0.09  -0.23    -0.02   0.04  -0.11     0.00   0.00   0.00
  16   1    -0.23  -0.27  -0.31     0.05   0.06   0.06     0.01   0.01   0.01
  17   8     0.06   0.07   0.07    -0.01  -0.02  -0.01    -0.00  -0.00  -0.00
  18   1    -0.01  -0.02   0.03     0.00   0.01  -0.01     0.00   0.00  -0.00
  19   1    -0.14   0.16  -0.05     0.00  -0.00   0.00    -0.54   0.64  -0.20
  20   8     0.04  -0.04   0.01    -0.00   0.00  -0.00     0.14  -0.15   0.05
  21   1     0.00  -0.01  -0.00    -0.00  -0.00  -0.00    -0.00  -0.03  -0.02
  22   1     0.03   0.01  -0.01    -0.01  -0.00   0.01     0.01   0.00  -0.00
  23   8    -0.01  -0.00   0.00     0.00  -0.00  -0.00    -0.00  -0.00   0.00
  24   1    -0.00   0.00  -0.01     0.00   0.00  -0.00    -0.00   0.00  -0.00
  25   7    -0.00   0.00   0.01    -0.00   0.00  -0.00     0.00  -0.00  -0.01
  26   1    -0.00   0.00   0.00    -0.00  -0.00   0.00     0.00   0.00  -0.00
  27   1     0.01  -0.01  -0.02     0.00  -0.00  -0.00    -0.02   0.01   0.03
  28   1    -0.00   0.00  -0.00    -0.00   0.00   0.00     0.00  -0.01  -0.00
                     67                     68                     69
                        a                      a                      a 
 Frequencies --  3321.8365              3328.5067              3364.1376
 Red. masses --     1.7171                 1.7780                 1.4779
 Frc consts  --     0.0000                 0.0000                 0.0000
 IR Inten    --     0.3477                 0.2203                 0.2324
 Raman Activ --     0.0000                 0.0000                 0.0000
 Depolar     --     0.0000                 0.0000                 0.0000
 Atom AN      X      Y      Z        X      Y      Z        X      Y      Z
   1   1     0.00   0.00   0.01    -0.03  -0.04  -0.16     0.00   0.00   0.00
   2   8    -0.00  -0.00  -0.00     0.00   0.01   0.04     0.00  -0.00  -0.00
   3   1    -0.00   0.00   0.00     0.02  -0.00  -0.00    -0.00   0.00   0.00
   4   1    -0.03  -0.02   0.00     0.81   0.48  -0.08     0.00   0.00   0.00
   5   8     0.01   0.00  -0.00    -0.18  -0.13   0.02    -0.00  -0.00  -0.00
   6   1     0.00   0.00   0.00    -0.10   0.05   0.01    -0.00  -0.00   0.00
   7   1    -0.00  -0.00   0.00    -0.01  -0.00   0.01     0.00   0.00  -0.00
   8   8    -0.00   0.00  -0.00     0.00   0.00  -0.00     0.00  -0.00   0.00
   9   1     0.01   0.00   0.01     0.00  -0.00   0.00    -0.01   0.00  -0.01
  10   1     0.24   0.08   0.03     0.01   0.00   0.00    -0.06  -0.02  -0.01
  11   8     0.05  -0.01  -0.19     0.00  -0.00  -0.01     0.00   0.00   0.02
  12   1    -0.45  -0.04   0.73    -0.02  -0.00   0.03     0.05   0.01  -0.07
  13   1     0.02  -0.00  -0.00     0.01  -0.00  -0.00    -0.00   0.00   0.00
  14   8    -0.01   0.00  -0.00    -0.00   0.01  -0.02     0.00  -0.00   0.00
  15   1     0.00  -0.01   0.02     0.01  -0.04   0.09    -0.00   0.00  -0.00
  16   1     0.00   0.01   0.01     0.01   0.00   0.01     0.00   0.00   0.00
  17   8    -0.00  -0.00  -0.00    -0.00  -0.00  -0.00    -0.00  -0.00  -0.00
  18   1    -0.00  -0.00   0.00    -0.00  -0.00   0.00     0.00   0.00  -0.00
  19   1    -0.22   0.27  -0.08    -0.01   0.01  -0.00     0.04  -0.05   0.02
  20   8     0.06  -0.06   0.02     0.00  -0.00   0.00    -0.01   0.01  -0.00
  21   1    -0.00  -0.01  -0.01     0.00  -0.00   0.00     0.00   0.00   0.00
  22   1     0.01   0.00  -0.00    -0.00  -0.00  -0.00     0.02   0.01  -0.01
  23   8    -0.00  -0.00   0.00     0.00   0.00  -0.00    -0.01  -0.00   0.00
  24   1    -0.00   0.00  -0.00     0.00  -0.00   0.00    -0.00   0.00  -0.00
  25   7     0.01  -0.01  -0.02     0.00  -0.00  -0.00     0.11  -0.02  -0.15
  26   1    -0.01   0.00  -0.02    -0.00   0.00  -0.00    -0.16   0.04  -0.22
  27   1    -0.04   0.04   0.10    -0.00   0.00   0.00    -0.33   0.29   0.77
  28   1     0.01  -0.02  -0.00     0.00  -0.00  -0.00     0.08  -0.26   0.00
                     70                     71                     72
                        a                      a                      a 
 Frequencies --  3408.8537              3421.5575              3429.3796
 Red. masses --     1.8185                 1.8828                 1.8000
 Frc consts  --     0.0000                 0.0000                 0.0000
 IR Inten    --     0.1434                 0.5159                 0.0931
 Raman Activ --     0.0000                 0.0000                 0.0000
 Depolar     --     0.0000                 0.0000                 0.0000
 Atom AN      X      Y      Z        X      Y      Z        X      Y      Z
   1   1    -0.00  -0.00  -0.01     0.02   0.01   0.04    -0.00  -0.00   0.00
   2   8    -0.00   0.00   0.00     0.06  -0.01  -0.04    -0.00   0.00   0.00
   3   1     0.01  -0.00  -0.00    -0.26   0.05   0.13     0.02  -0.00  -0.01
   4   1    -0.00  -0.00  -0.00     0.00   0.00   0.00    -0.00   0.00  -0.00
   5   8     0.00   0.00   0.00    -0.00   0.00  -0.00    -0.00   0.00  -0.00
   6   1    -0.00   0.00  -0.00    -0.00  -0.00   0.00     0.00  -0.00  -0.00
   7   1     0.07   0.02  -0.07    -0.64  -0.17   0.63    -0.04  -0.01   0.04
   8   8    -0.02  -0.00   0.02     0.15   0.04  -0.17     0.01   0.00  -0.01
   9   1    -0.00  -0.00   0.00     0.05  -0.00   0.04     0.00  -0.00   0.00
  10   1     0.02   0.01   0.00    -0.01  -0.00  -0.00     0.00   0.00   0.00
  11   8    -0.00  -0.00  -0.00     0.00   0.00   0.00     0.00   0.00  -0.00
  12   1    -0.01  -0.00   0.01    -0.00  -0.00   0.00    -0.00  -0.00   0.00
  13   1     0.00  -0.00  -0.00     0.00  -0.00  -0.00    -0.00  -0.00   0.00
  14   8    -0.00   0.00  -0.00    -0.00   0.00   0.00     0.00   0.00  -0.00
  15   1     0.00  -0.00   0.00    -0.00  -0.00  -0.00     0.00  -0.00   0.01
  16   1    -0.00  -0.00   0.00     0.00   0.01   0.00    -0.05  -0.07  -0.03
  17   8    -0.00  -0.00   0.00     0.00   0.01  -0.01    -0.10  -0.15   0.14
  18   1     0.00   0.00  -0.00    -0.02  -0.03   0.02     0.45   0.68  -0.52
  19   1    -0.01   0.01  -0.00     0.01  -0.01   0.00     0.00  -0.00   0.00
  20   8     0.00  -0.00   0.00    -0.00   0.00  -0.00    -0.00   0.00  -0.00
  21   1    -0.00  -0.00  -0.00     0.00   0.00   0.00     0.00   0.00   0.00
  22   1     0.01   0.00   0.00    -0.01  -0.00   0.00     0.00   0.00  -0.00
  23   8    -0.00   0.00  -0.00     0.00  -0.00   0.00    -0.00   0.00  -0.00
  24   1     0.00  -0.00   0.00     0.00   0.00  -0.00    -0.00  -0.01   0.01
  25   7     0.08   0.10   0.21     0.01   0.00   0.02     0.00  -0.00   0.00
  26   1    -0.55   0.13  -0.57    -0.06   0.02  -0.07    -0.00   0.00  -0.00
  27   1     0.15  -0.10  -0.28     0.01  -0.01  -0.03     0.00   0.00   0.00
  28   1     0.10  -0.39   0.06     0.01  -0.02   0.00    -0.00   0.00   0.00
                     73                     74                     75
                        a                      a                      a 
 Frequencies --  3436.6572              3436.9585              3514.7296
 Red. masses --     2.0064                 1.7985                 1.8048
 Frc consts  --     0.0000                 0.0000                 0.0000
 IR Inten    --     0.0492                 0.1196                 0.3854
 Raman Activ --     0.0000                 0.0000                 0.0000
 Depolar     --     0.0000                 0.0000                 0.0000
 Atom AN      X      Y      Z        X      Y      Z        X      Y      Z
   1   1     0.00  -0.00  -0.02     0.01  -0.03  -0.11     0.00   0.00   0.00
   2   8     0.03  -0.01  -0.01     0.20  -0.03  -0.08    -0.00   0.00  -0.00
   3   1    -0.12   0.02   0.06    -0.80   0.16   0.41     0.00  -0.00  -0.00
   4   1     0.00   0.00  -0.00     0.00  -0.00  -0.00    -0.00  -0.00   0.00
   5   8    -0.00   0.00   0.00     0.00  -0.00   0.00     0.00   0.00  -0.00
   6   1     0.00  -0.00   0.00    -0.00   0.01   0.00    -0.00   0.00   0.00
   7   1     0.01   0.00  -0.01     0.20   0.05  -0.19    -0.00  -0.00   0.00
   8   8    -0.00  -0.00   0.00    -0.04  -0.01   0.05     0.00  -0.00   0.00
   9   1     0.00  -0.00   0.00    -0.02   0.00  -0.02    -0.00   0.00  -0.01
  10   1     0.00   0.00  -0.00     0.00   0.00   0.00     0.05   0.02   0.01
  11   8     0.00  -0.00  -0.00    -0.00  -0.00  -0.00    -0.01  -0.00  -0.00
  12   1    -0.00  -0.00   0.01     0.00   0.00  -0.00    -0.00  -0.00   0.00
  13   1    -0.00   0.00  -0.00    -0.00   0.00  -0.00    -0.90   0.34  -0.03
  14   8     0.00  -0.00   0.00     0.00   0.00  -0.00     0.22  -0.08  -0.01
  15   1    -0.00   0.00  -0.00     0.00  -0.00   0.00     0.04  -0.04   0.08
  16   1     0.00   0.00   0.00    -0.00  -0.01  -0.01    -0.01  -0.01  -0.01
  17   8    -0.00  -0.00   0.00    -0.00  -0.00   0.01     0.00   0.00   0.00
  18   1     0.00   0.00  -0.00     0.02   0.02  -0.02    -0.00  -0.00   0.01
  19   1    -0.00   0.00  -0.00    -0.00   0.00   0.00     0.00  -0.00  -0.00
  20   8     0.00  -0.00   0.00     0.00   0.00   0.00     0.00   0.00   0.00
  21   1    -0.00  -0.00  -0.00    -0.00  -0.00  -0.00    -0.00  -0.00  -0.00
  22   1    -0.00   0.00  -0.00     0.00   0.00  -0.00    -0.00  -0.00   0.00
  23   8     0.00  -0.00   0.00    -0.00   0.00  -0.00     0.00  -0.00   0.00
  24   1    -0.00   0.01  -0.01    -0.00  -0.01   0.01    -0.00   0.01  -0.01
  25   7    -0.13   0.23  -0.08     0.02  -0.03   0.01     0.00   0.00   0.00
  26   1     0.31  -0.03   0.33    -0.03   0.00  -0.04    -0.00   0.00  -0.00
  27   1     0.03  -0.01  -0.11    -0.01   0.00   0.02     0.00   0.00  -0.00
  28   1     0.16  -0.81   0.06    -0.03   0.12  -0.01    -0.00  -0.00   0.00
                     76                     77                     78
                        a                      a                      a 
 Frequencies --  3528.2331              3530.1215              3546.0877
 Red. masses --     1.8239                 1.8394                 1.8053
 Frc consts  --     0.0000                 0.0000                 0.0000
 IR Inten    --     0.2016                 0.1470                 0.2766
 Raman Activ --     0.0000                 0.0000                 0.0000
 Depolar     --     0.0000                 0.0000                 0.0000
 Atom AN      X      Y      Z        X      Y      Z        X      Y      Z
   1   1     0.00   0.00   0.00     0.00   0.00   0.01    -0.00  -0.00  -0.01
   2   8     0.00  -0.00  -0.00    -0.00  -0.00  -0.00    -0.00   0.00   0.00
   3   1    -0.00   0.00   0.00     0.00  -0.00  -0.00     0.01  -0.00  -0.01
   4   1    -0.00  -0.00   0.00    -0.00  -0.00   0.00     0.00   0.00  -0.00
   5   8     0.00  -0.00   0.00     0.00   0.00  -0.00     0.00  -0.00   0.00
   6   1    -0.00   0.00  -0.00    -0.00   0.00   0.00    -0.00   0.00  -0.00
   7   1     0.00   0.00  -0.00    -0.00  -0.00   0.00    -0.04  -0.02   0.08
   8   8    -0.00   0.00  -0.01     0.00   0.00  -0.00     0.12  -0.02   0.20
   9   1     0.01  -0.00   0.02     0.00  -0.00   0.01    -0.43   0.11  -0.86
  10   1     0.00   0.00   0.00     0.00   0.00   0.00     0.01   0.00   0.00
  11   8     0.00  -0.00  -0.00    -0.00   0.00  -0.00    -0.00  -0.00  -0.00
  12   1    -0.00  -0.00   0.00     0.00  -0.00   0.00    -0.00  -0.00  -0.00
  13   1    -0.01   0.00  -0.00    -0.01   0.00  -0.00     0.01  -0.00   0.00
  14   8     0.00  -0.00   0.00     0.00  -0.00   0.00    -0.00  -0.00   0.00
  15   1     0.00  -0.00  -0.00    -0.00   0.00  -0.00     0.00   0.00  -0.00
  16   1    -0.00  -0.00  -0.00    -0.01  -0.00  -0.01    -0.00  -0.00  -0.00
  17   8     0.00   0.00   0.00     0.00   0.00   0.00     0.00   0.00   0.00
  18   1    -0.00  -0.00   0.00    -0.01  -0.01   0.01    -0.00  -0.00   0.00
  19   1    -0.04   0.02  -0.03     0.00  -0.00   0.00    -0.02   0.02  -0.01
  20   8    -0.14  -0.08  -0.16     0.00   0.00   0.00    -0.00  -0.01  -0.00
  21   1     0.62   0.30   0.68    -0.01  -0.00  -0.01     0.02   0.01   0.02
  22   1     0.00   0.00  -0.00     0.01   0.02  -0.02    -0.00   0.00  -0.00
  23   8    -0.00   0.00  -0.00    -0.01   0.14  -0.19    -0.00   0.00  -0.00
  24   1     0.00  -0.01   0.01     0.02  -0.58   0.78    -0.00  -0.01   0.01
  25   7    -0.00   0.00  -0.00    -0.00   0.00  -0.00    -0.00   0.00   0.00
  26   1     0.00  -0.00   0.00     0.01  -0.00   0.01    -0.00   0.00  -0.00
  27   1    -0.00   0.00  -0.00    -0.00   0.00   0.00     0.00  -0.00  -0.01
  28   1     0.00  -0.00   0.00     0.00  -0.01   0.00     0.00  -0.01   0.00
