 Entering Gaussian System
 *********************************************
 Gaussian 98:
 frequency output generated by the xtb code
 *********************************************
                         Standard orientation:
 --------------------------------------------------------------------
  Center     Atomic     Atomic              Coordinates (Angstroms)
  Number     Number      Type              X           Y           Z
 --------------------------------------------------------------------
    1          1             0        1.650176   -6.656946   -3.058666
    2          8             0        1.422425   -6.839662   -3.999477
    3          1             0        2.295946   -7.005740   -4.398728
    4          1             0        2.679804   -5.762998   -1.432157
    5          8             0        1.854772   -6.289050   -1.346590
    6          1             0        1.132241   -5.605248   -1.267801
    7          1             0       -0.248626   -7.542138   -3.278868
    8          8             0       -0.957099   -7.717724   -2.633350
    9          1             0       -0.498212   -7.819377   -1.788985
   10          1             0        0.646831   -8.054120    0.827928
   11          8             0       -0.245950   -8.353564    0.544060
   12          1             0       -0.731271   -8.380788    1.400291
   13          1             0        3.061638   -7.436609    1.102179
   14          8             0        2.149876   -7.110563    1.113792
   15          1             0        2.052482   -6.781591    0.171695
   16          1             0        4.192353   -7.972228   -0.957938
   17          8             0        4.661169   -7.434312   -0.277524
   18          1             0        5.098490   -6.761521   -0.832425
   19          1             0       -1.308051   -6.928718    0.243859
   20          8             0       -1.912801   -6.177962    0.054855
   21          1             0       -2.513762   -6.509431   -0.628350
   22          1             0        2.653944   -9.317899   -2.166284
   23          8             0        3.588078   -8.995753   -2.320299
   24          1             0        3.547795   -8.418237   -3.095332
   25          7             0        1.105049  -10.124574   -1.731337
   26          1             0        0.393118  -10.003599   -2.446995
   27          1             0        0.681447   -9.821789   -0.854314
   28          1             0        1.285158  -11.120893   -1.651311
 --------------------------------------------------------------------
     1 basis functions        1 primitive gaussians
     1 alpha electrons        1 beta electrons
 
 Harmonic frequencies (cm**-1), IR intensities (KM/Mole),
 Raman scattering activities (A**4/amu), Raman depolarization ratios,
 reduced masses (AMU), force constants (mDyne/A) and normal coordinates:
                      1                      2                      3
                        a                      a                      a 
 Frequencies --   -43.6417               -27.2412               -11.9122
 Red. masses --    99.0000                99.0000                99.0000
 Frc consts  --    99.0000                99.0000                99.0000
 IR Inten    --    99.0000                99.0000                99.0000
 Raman Activ --     0.0000                 0.0000                 0.0000
 Depolar     --     0.0000                 0.0000                 0.0000
 Atom AN      X      Y      Z        X      Y      Z        X      Y      Z
   1   1     0.04  -0.00  -0.01     0.07   0.01  -0.03     0.01   0.09   0.05
   2   8     0.05  -0.09  -0.01     0.33   0.19  -0.15     0.09   0.21   0.21
   3   1     0.00  -0.04  -0.02     0.09   0.09  -0.04     0.03   0.06   0.06
   4   1     0.15   0.01  -0.03     0.02  -0.10   0.03     0.02   0.13   0.05
   5   8     0.54   0.17  -0.15     0.05  -0.33   0.02     0.08   0.53   0.13
   6   1     0.16   0.07  -0.05     0.02  -0.07  -0.00     0.02   0.13   0.04
   7   1     0.02   0.00   0.03     0.07   0.02  -0.06     0.05  -0.04   0.02
   8   8     0.02   0.05   0.08     0.29   0.11  -0.21     0.15  -0.26   0.02
   9   1    -0.01   0.01   0.03     0.08   0.05  -0.05     0.02  -0.05   0.02
  10   1    -0.02   0.03  -0.03    -0.00   0.00   0.06    -0.02  -0.02  -0.02
  11   8    -0.06   0.08  -0.10    -0.02  -0.02   0.29    -0.11  -0.04  -0.05
  12   1    -0.01   0.01  -0.02     0.00   0.01   0.08    -0.03   0.00  -0.01
  13   1    -0.02  -0.01  -0.02    -0.00   0.02   0.05    -0.01  -0.06  -0.04
  14   8    -0.05   0.03  -0.14     0.00   0.07   0.17    -0.04  -0.28  -0.16
  15   1     0.01   0.01  -0.04    -0.00  -0.00   0.04    -0.01  -0.04  -0.03
  16   1     0.01  -0.01   0.00    -0.04   0.04  -0.06    -0.01   0.02  -0.05
  17   8     0.07  -0.07   0.01    -0.12   0.23  -0.30    -0.02   0.12  -0.26
  18   1     0.03  -0.03  -0.00    -0.02   0.03  -0.10    -0.01   0.02  -0.08
  19   1    -0.11  -0.02   0.03    -0.03  -0.05   0.02     0.01   0.01  -0.03
  20   8    -0.60  -0.15   0.31    -0.11  -0.20   0.06     0.08   0.07  -0.14
  21   1    -0.15  -0.03   0.07    -0.03  -0.05   0.02     0.02   0.01  -0.03
  22   1     0.00  -0.01   0.00    -0.05  -0.01   0.01    -0.03  -0.04   0.02
  23   8     0.02  -0.04   0.02    -0.23  -0.03  -0.05    -0.16  -0.13   0.01
  24   1     0.01  -0.00   0.01    -0.08  -0.03  -0.03    -0.07  -0.05  -0.01
  25   7    -0.00   0.02   0.00    -0.19  -0.01   0.16    -0.05  -0.23   0.22
  26   1     0.00   0.01  -0.00    -0.06   0.00   0.05    -0.02  -0.07   0.06
  27   1    -0.00   0.01   0.00    -0.04   0.01   0.05    -0.01  -0.05   0.06
  28   1    -0.01   0.00  -0.00    -0.06  -0.00   0.05    -0.01  -0.06   0.07
                      4                      5                      6
                        a                      a                      a 
 Frequencies --    12.0546                44.8189                50.4044
 Red. masses --    99.0000                99.0000                99.0000
 Frc consts  --    99.0000                99.0000                99.0000
 IR Inten    --    99.0000                99.0000                99.0000
 Raman Activ --     0.0000                 0.0000                 0.0000
 Depolar     --     0.0000                 0.0000                 0.0000
 Atom AN      X      Y      Z        X      Y      Z        X      Y      Z
   1   1     0.01  -0.07   0.04     0.05  -0.02  -0.04     0.01  -0.02  -0.00
   2   8    -0.00  -0.25   0.18     0.24  -0.17  -0.16     0.16  -0.15  -0.03
   3   1    -0.01  -0.07   0.03     0.07  -0.04  -0.03     0.05  -0.03   0.02
   4   1     0.08  -0.10   0.05    -0.05   0.04  -0.03    -0.14   0.04   0.00
   5   8     0.24  -0.29   0.13    -0.16   0.10  -0.16    -0.46   0.06   0.03
   6   1     0.08  -0.05   0.03    -0.05   0.01  -0.06    -0.14  -0.01   0.02
   7   1    -0.03   0.00   0.04     0.04   0.04   0.05    -0.00   0.05  -0.02
   8   8    -0.15   0.04   0.10     0.17   0.31   0.22    -0.02   0.32  -0.07
   9   1    -0.05  -0.02   0.03     0.05   0.01   0.04    -0.00   0.06  -0.02
  10   1    -0.06  -0.03  -0.01    -0.01  -0.04  -0.04    -0.02  -0.01   0.01
  11   8    -0.24   0.02  -0.12    -0.01  -0.26  -0.18    -0.13   0.10   0.08
  12   1    -0.08   0.01  -0.04    -0.01  -0.09  -0.05    -0.02   0.04   0.03
  13   1    -0.03  -0.06   0.07    -0.06   0.04  -0.04     0.06  -0.07  -0.07
  14   8    -0.12  -0.28   0.16    -0.28   0.09  -0.16     0.20  -0.36  -0.20
  15   1    -0.00  -0.07   0.04    -0.07   0.03  -0.04     0.03  -0.08  -0.04
  16   1     0.01   0.09  -0.05    -0.04   0.02   0.00     0.07  -0.01  -0.02
  17   8    -0.02   0.45  -0.26    -0.23   0.13   0.03     0.27   0.00  -0.09
  18   1     0.00   0.09  -0.08    -0.07   0.04   0.01     0.04   0.02  -0.02
  19   1    -0.00   0.06  -0.01     0.05   0.02   0.07    -0.06   0.00   0.01
  20   8     0.02   0.28  -0.02     0.22   0.09   0.39    -0.30  -0.02   0.05
  21   1     0.01   0.08  -0.01     0.05   0.04   0.10    -0.07  -0.01   0.01
  22   1     0.04   0.01  -0.02     0.01  -0.03   0.01     0.04  -0.00   0.02
  23   8     0.16   0.03  -0.07     0.01  -0.07   0.04     0.17  -0.07   0.04
  24   1     0.05  -0.02  -0.03    -0.00  -0.02   0.01     0.04  -0.03   0.00
  25   7     0.10   0.03  -0.10     0.06  -0.20  -0.01     0.11   0.11   0.20
  26   1     0.03   0.01  -0.03     0.03  -0.08  -0.02     0.04   0.01   0.04
  27   1     0.01   0.00  -0.03    -0.00  -0.05  -0.01     0.02   0.05   0.04
  28   1     0.03   0.01  -0.03     0.03  -0.05   0.02     0.03   0.03   0.08
                      7                      8                      9
                        a                      a                      a 
 Frequencies --    63.9107                68.5389                42.3294
 Red. masses --    99.0000                99.0000                99.0000
 Frc consts  --    99.0000                99.0000                99.0000
 IR Inten    --    99.0000                99.0000                99.0000
 Raman Activ --     0.0000                 0.0000                 0.0000
 Depolar     --     0.0000                 0.0000                 0.0000
 Atom AN      X      Y      Z        X      Y      Z        X      Y      Z
   1   1    -0.01  -0.01   0.01    -0.04   0.05  -0.00     0.02  -0.01   0.05
   2   8    -0.06  -0.00   0.03    -0.19   0.26  -0.01     0.15   0.00   0.16
   3   1    -0.02   0.00   0.00    -0.05   0.06  -0.01     0.05   0.02   0.05
   4   1     0.01  -0.01  -0.00     0.04  -0.01   0.00    -0.08   0.02   0.04
   5   8     0.06  -0.07   0.02     0.14   0.01  -0.00    -0.26   0.00   0.20
   6   1     0.01  -0.02   0.01     0.04   0.01  -0.00    -0.08  -0.01   0.04
   7   1    -0.04   0.08   0.05    -0.06   0.08  -0.01     0.04  -0.02   0.07
   8   8    -0.12   0.40   0.28    -0.22   0.35  -0.01     0.17  -0.08   0.26
   9   1    -0.00   0.01   0.04    -0.04   0.04  -0.02     0.04  -0.03   0.07
  10   1     0.06  -0.02  -0.06    -0.02   0.01   0.03     0.03   0.05  -0.03
  11   8     0.25  -0.08  -0.31    -0.03  -0.08   0.12     0.12   0.26  -0.20
  12   1     0.05  -0.02  -0.08    -0.01  -0.01   0.03     0.02   0.06  -0.06
  13   1     0.05   0.01   0.02    -0.04   0.01   0.02     0.02   0.04   0.04
  14   8     0.17   0.00   0.03    -0.15   0.12   0.06     0.13   0.26   0.24
  15   1     0.05   0.00   0.01    -0.03   0.02   0.01     0.02   0.07   0.06
  16   1     0.01   0.04   0.02    -0.01  -0.05  -0.03    -0.03  -0.03  -0.04
  17   8     0.16   0.18  -0.02    -0.20  -0.09  -0.09    -0.16  -0.10  -0.15
  18   1     0.04   0.03  -0.02    -0.05  -0.02  -0.02    -0.04  -0.02  -0.04
  19   1    -0.00  -0.04  -0.08    -0.00  -0.03  -0.02    -0.05   0.03  -0.03
  20   8    -0.06  -0.22  -0.34     0.02  -0.12  -0.19    -0.30   0.07  -0.03
  21   1     0.03  -0.05  -0.13     0.03  -0.03  -0.07    -0.07   0.01  -0.01
  22   1    -0.05  -0.01   0.06     0.08  -0.07  -0.02     0.02  -0.06  -0.07
  23   8    -0.24   0.04   0.27     0.33  -0.35  -0.18     0.09  -0.22  -0.23
  24   1    -0.07   0.01   0.07     0.08  -0.09  -0.05     0.03  -0.07  -0.07
  25   7    -0.17  -0.21   0.04     0.28  -0.08   0.27     0.06  -0.17  -0.23
  26   1    -0.03  -0.08  -0.01     0.07  -0.07   0.06     0.01  -0.02  -0.05
  27   1    -0.07  -0.04  -0.01     0.07   0.02   0.06     0.04  -0.05  -0.05
  28   1    -0.03  -0.05   0.04     0.08  -0.02   0.13    -0.00  -0.05  -0.08
                     10                     11                     12
                        a                      a                      a 
 Frequencies --    55.5620                73.7955                88.5062
 Red. masses --    99.0000                99.0000                99.0000
 Frc consts  --    99.0000                99.0000                99.0000
 IR Inten    --    99.0000                99.0000                99.0000
 Raman Activ --     0.0000                 0.0000                 0.0000
 Depolar     --     0.0000                 0.0000                 0.0000
 Atom AN      X      Y      Z        X      Y      Z        X      Y      Z
   1   1    -0.03   0.08  -0.07    -0.03   0.02   0.01     0.03  -0.06   0.03
   2   8    -0.16   0.44  -0.31    -0.08   0.17   0.03     0.15  -0.19   0.12
   3   1    -0.04   0.12  -0.09    -0.02   0.04   0.02     0.04   0.00   0.02
   4   1    -0.01  -0.08  -0.02    -0.01  -0.01   0.01     0.01  -0.01   0.01
   5   8    -0.03  -0.33  -0.13    -0.05  -0.03   0.07     0.04  -0.04   0.09
   6   1    -0.01  -0.08  -0.02    -0.01  -0.01   0.02     0.01  -0.01   0.01
   7   1     0.03  -0.03   0.06    -0.05   0.00  -0.12    -0.02  -0.01  -0.04
   8   8     0.18  -0.16   0.26    -0.24  -0.06  -0.54    -0.15   0.06  -0.20
   9   1     0.06  -0.06   0.06    -0.07  -0.02  -0.13    -0.04  -0.03  -0.05
  10   1    -0.03  -0.00  -0.02     0.03   0.00  -0.05     0.02   0.01  -0.04
  11   8    -0.15   0.12  -0.14     0.13   0.05  -0.26     0.08   0.03  -0.21
  12   1    -0.05   0.03  -0.04     0.03  -0.01  -0.07     0.01  -0.00  -0.06
  13   1     0.00  -0.03  -0.00     0.03   0.03   0.03    -0.00  -0.02   0.02
  14   8    -0.00  -0.15  -0.06     0.12   0.09   0.09     0.01   0.02   0.10
  15   1     0.00  -0.05  -0.02     0.03   0.02   0.02     0.01   0.01   0.03
  16   1     0.03   0.00   0.02     0.02   0.02   0.02    -0.04  -0.01  -0.02
  17   8     0.12  -0.04   0.11     0.09   0.16  -0.00    -0.09  -0.24   0.02
  18   1     0.04  -0.01   0.03     0.01   0.03  -0.02     0.00  -0.06   0.03
  19   1    -0.03   0.06  -0.01     0.02   0.03   0.04     0.01   0.02  -0.01
  20   8    -0.12   0.25   0.04    -0.01   0.12   0.37    -0.02   0.07   0.05
  21   1    -0.03   0.07   0.01    -0.04   0.04   0.12    -0.01   0.02   0.01
  22   1     0.01   0.01   0.02     0.01  -0.06   0.05    -0.04   0.07  -0.05
  23   8     0.01   0.12   0.05     0.05  -0.23   0.26    -0.24   0.44  -0.34
  24   1    -0.03   0.05   0.02     0.02  -0.07   0.06    -0.11   0.12  -0.07
  25   7     0.15  -0.22   0.17    -0.01  -0.25  -0.01     0.20  -0.14   0.35
  26   1     0.04  -0.09   0.04     0.02  -0.08  -0.03     0.05  -0.17   0.08
  27   1     0.03  -0.06   0.04    -0.02  -0.04  -0.02     0.03   0.01   0.06
  28   1     0.07  -0.05   0.06    -0.02  -0.07   0.03     0.14  -0.01   0.19
                     13                     14                     15
                        a                      a                      a 
 Frequencies --   103.6174               167.4506               213.2153
 Red. masses --    99.0000                99.0000                99.0000
 Frc consts  --    99.0000                99.0000                99.0000
 IR Inten    --    99.0000                99.0000                99.0000
 Raman Activ --     0.0000                 0.0000                 0.0000
 Depolar     --     0.0000                 0.0000                 0.0000
 Atom AN      X      Y      Z        X      Y      Z        X      Y      Z
   1   1     0.01  -0.01   0.00    -0.08   0.02   0.01    -0.02   0.02  -0.02
   2   8     0.03  -0.06   0.02    -0.55  -0.20   0.14    -0.03  -0.01  -0.08
   3   1     0.01  -0.01   0.00    -0.17  -0.14   0.01    -0.00  -0.02  -0.00
   4   1     0.01   0.03  -0.00     0.00  -0.00   0.02     0.01   0.02   0.00
   5   8     0.04   0.10  -0.03    -0.01   0.02   0.06     0.04   0.07   0.02
   6   1     0.00   0.02  -0.00     0.00   0.01   0.02     0.01   0.01   0.01
   7   1    -0.02   0.03  -0.02     0.13   0.05  -0.08     0.01  -0.04  -0.01
   8   8    -0.09   0.17  -0.07     0.60   0.22  -0.22     0.06  -0.03   0.02
   9   1    -0.02   0.02  -0.02     0.17   0.07  -0.07     0.04  -0.08  -0.02
  10   1    -0.04   0.00   0.08    -0.02  -0.01  -0.00    -0.03  -0.08   0.03
  11   8    -0.23   0.07   0.45    -0.04  -0.04  -0.06    -0.11  -0.29   0.10
  12   1    -0.04   0.05   0.12    -0.02  -0.01  -0.02    -0.04  -0.05   0.02
  13   1     0.01   0.04   0.00    -0.01  -0.00   0.02     0.08   0.06   0.01
  14   8     0.02   0.09  -0.01    -0.02   0.01   0.09     0.27   0.07   0.08
  15   1    -0.01   0.01  -0.00    -0.00   0.00   0.02     0.04  -0.00   0.02
  16   1     0.03   0.03   0.02    -0.01  -0.01  -0.01    -0.02  -0.01   0.01
  17   8     0.21   0.02   0.08     0.01  -0.04  -0.07    -0.08  -0.01  -0.01
  18   1     0.06   0.01   0.02     0.01  -0.02  -0.03    -0.03  -0.00  -0.01
  19   1    -0.02   0.00   0.02    -0.01   0.00  -0.02    -0.04   0.04   0.01
  20   8    -0.02   0.04  -0.07    -0.03   0.03   0.01    -0.11   0.16  -0.03
  21   1     0.01   0.00  -0.02    -0.01   0.02  -0.00     0.01   0.05  -0.04
  22   1     0.01  -0.01  -0.04    -0.01  -0.01   0.01    -0.02   0.03  -0.01
  23   8    -0.03   0.16  -0.07    -0.06   0.02   0.04    -0.00  -0.03   0.05
  24   1    -0.02   0.05  -0.01    -0.02   0.03   0.02     0.04  -0.00   0.02
  25   7     0.06  -0.58  -0.30     0.10  -0.03   0.02    -0.05   0.10  -0.14
  26   1     0.00  -0.14  -0.06     0.02   0.04   0.02     0.10  -0.44  -0.23
  27   1     0.02  -0.20  -0.06     0.04  -0.03   0.02    -0.25   0.27  -0.23
  28   1     0.05  -0.15  -0.13     0.00  -0.02  -0.03     0.22   0.10   0.40
                     16                     17                     18
                        a                      a                      a 
 Frequencies --   138.4347               258.2621               329.8670
 Red. masses --    99.0000                99.0000                99.0000
 Frc consts  --    99.0000                99.0000                99.0000
 IR Inten    --    99.0000                99.0000                99.0000
 Raman Activ --     0.0000                 0.0000                 0.0000
 Depolar     --     0.0000                 0.0000                 0.0000
 Atom AN      X      Y      Z        X      Y      Z        X      Y      Z
   1   1     0.00  -0.00   0.02    -0.00   0.01   0.00     0.02  -0.00   0.00
   2   8     0.05   0.04   0.05     0.00   0.01   0.01     0.00  -0.01   0.02
   3   1     0.02   0.02   0.02    -0.00  -0.01   0.00    -0.00   0.04  -0.03
   4   1    -0.02  -0.01   0.01     0.00  -0.01   0.02     0.02  -0.04   0.01
   5   8    -0.09  -0.00   0.06    -0.03  -0.01   0.01    -0.02  -0.00  -0.04
   6   1    -0.02   0.01  -0.00    -0.00   0.01  -0.01     0.02   0.03  -0.00
   7   1     0.00  -0.01   0.02    -0.00  -0.00  -0.01     0.00   0.00   0.01
   8   8    -0.01  -0.05   0.05    -0.00  -0.01  -0.05    -0.00  -0.05   0.02
   9   1    -0.00  -0.03   0.01     0.00  -0.05  -0.02    -0.04   0.27   0.06
  10   1    -0.08  -0.03  -0.01     0.12  -0.05   0.04     0.01  -0.03   0.00
  11   8    -0.21  -0.26  -0.14     0.49  -0.30   0.19     0.00  -0.02   0.02
  12   1    -0.07  -0.09  -0.05     0.12  -0.04   0.05     0.01  -0.03   0.01
  13   1    -0.08   0.08   0.06    -0.07  -0.05  -0.02    -0.00  -0.02  -0.00
  14   8    -0.30   0.34   0.15    -0.22  -0.07  -0.02     0.01   0.00   0.02
  15   1    -0.06   0.07   0.03    -0.06  -0.00  -0.00     0.00   0.01   0.01
  16   1     0.11  -0.00  -0.02     0.00  -0.04  -0.04     0.04  -0.01  -0.01
  17   8     0.64  -0.11  -0.17    -0.03  -0.11  -0.16    -0.00   0.02   0.02
  18   1     0.18  -0.06  -0.07    -0.00  -0.03  -0.04     0.01   0.01   0.02
  19   1    -0.01  -0.01  -0.00    -0.09   0.09   0.03    -0.03  -0.01   0.01
  20   8     0.03   0.00   0.02    -0.28   0.38  -0.11     0.02   0.03  -0.05
  21   1     0.00   0.02  -0.00    -0.04   0.09  -0.05    -0.11  -0.03   0.10
  22   1     0.00   0.01  -0.01     0.07   0.04  -0.00     0.08  -0.15   0.10
  23   8     0.02  -0.04  -0.11     0.26   0.20   0.10     0.04   0.03  -0.11
  24   1     0.01  -0.02  -0.03     0.08   0.08   0.04    -0.25   0.14   0.09
  25   7    -0.11   0.09   0.09    -0.19  -0.10   0.03     0.09  -0.13   0.09
  26   1    -0.02   0.00   0.01    -0.08   0.03   0.05     0.39   0.27  -0.29
  27   1    -0.05   0.03   0.02    -0.00  -0.04   0.04    -0.23   0.18  -0.17
  28   1    -0.02   0.03   0.04    -0.11  -0.04  -0.03    -0.49  -0.12   0.14
                     19                     20                     21
                        a                      a                      a 
 Frequencies --   232.3912               253.5915               358.5271
 Red. masses --    99.0000                99.0000                99.0000
 Frc consts  --    99.0000                99.0000                99.0000
 IR Inten    --    99.0000                99.0000                99.0000
 Raman Activ --     0.0000                 0.0000                 0.0000
 Depolar     --     0.0000                 0.0000                 0.0000
 Atom AN      X      Y      Z        X      Y      Z        X      Y      Z
   1   1     0.01   0.09  -0.20    -0.01   0.03  -0.01     0.04   0.09  -0.02
   2   8    -0.03  -0.15  -0.67    -0.01  -0.01  -0.02     0.03   0.01   0.05
   3   1    -0.02  -0.12  -0.16    -0.00  -0.02   0.00    -0.03  -0.13  -0.01
   4   1     0.02   0.07   0.08     0.00   0.01   0.02    -0.05   0.10   0.05
   5   8     0.04   0.30   0.29     0.01   0.01   0.00     0.03  -0.03  -0.03
   6   1     0.02   0.08   0.08    -0.00  -0.00   0.01    -0.07  -0.09   0.01
   7   1    -0.03  -0.02  -0.01     0.01  -0.01   0.01     0.03   0.07   0.04
   8   8    -0.08  -0.02   0.03     0.02   0.00   0.02    -0.00   0.02  -0.03
   9   1    -0.01   0.05   0.01     0.00  -0.01   0.00    -0.02  -0.30  -0.04
  10   1     0.00  -0.01   0.02    -0.06   0.03  -0.03     0.02  -0.01  -0.00
  11   8     0.03   0.01  -0.02    -0.25   0.19  -0.12     0.03   0.05   0.02
  12   1    -0.01  -0.00  -0.01    -0.06   0.03  -0.03     0.01   0.02   0.01
  13   1    -0.01  -0.06   0.10     0.02  -0.00  -0.01    -0.00   0.02   0.02
  14   8    -0.01  -0.13   0.41     0.10   0.05   0.04    -0.03   0.01  -0.01
  15   1     0.02   0.00   0.11     0.02   0.01   0.01     0.00  -0.02  -0.01
  16   1    -0.01   0.00   0.00    -0.01  -0.08  -0.07     0.11  -0.10   0.02
  17   8     0.04  -0.00  -0.03    -0.16  -0.20  -0.28     0.03   0.05   0.01
  18   1     0.01  -0.01  -0.02    -0.05  -0.05  -0.08    -0.13   0.09  -0.01
  19   1     0.01   0.00  -0.00     0.06  -0.05  -0.02     0.02   0.02   0.01
  20   8    -0.00  -0.00  -0.01     0.16  -0.23   0.08    -0.03  -0.00   0.02
  21   1    -0.00  -0.01   0.00     0.03  -0.05   0.02     0.09   0.01  -0.09
  22   1    -0.00  -0.01   0.00     0.11   0.10   0.01     0.01  -0.05   0.03
  23   8    -0.02  -0.02  -0.02     0.45   0.32   0.20     0.01  -0.22  -0.16
  24   1    -0.02   0.04   0.03     0.15   0.15   0.10    -0.22   0.57   0.43
  25   7     0.04  -0.00   0.00    -0.32  -0.13   0.09    -0.05   0.09   0.06
  26   1    -0.01   0.06   0.04    -0.05  -0.06  -0.01     0.05  -0.00  -0.05
  27   1     0.05  -0.03   0.03    -0.14  -0.04  -0.00    -0.16  -0.18   0.02
  28   1    -0.02  -0.01  -0.06    -0.08  -0.03   0.05     0.18   0.05  -0.12
                     22                     23                     24
                        a                      a                      a 
 Frequencies --   214.9927               182.1189               381.3472
 Red. masses --    99.0000                99.0000                99.0000
 Frc consts  --    99.0000                99.0000                99.0000
 IR Inten    --    99.0000                99.0000                99.0000
 Raman Activ --     0.0000                 0.0000                 0.0000
 Depolar     --     0.0000                 0.0000                 0.0000
 Atom AN      X      Y      Z        X      Y      Z        X      Y      Z
   1   1    -0.01  -0.00  -0.00    -0.02  -0.01  -0.01    -0.02  -0.16   0.04
   2   8    -0.05  -0.00  -0.01    -0.09  -0.04  -0.02    -0.03  -0.06   0.01
   3   1    -0.01  -0.01  -0.00    -0.02  -0.02  -0.01     0.02   0.30  -0.07
   4   1    -0.01  -0.01   0.02    -0.01   0.03  -0.01    -0.03   0.07  -0.06
   5   8    -0.03  -0.03   0.07     0.02   0.03   0.01     0.05   0.03  -0.04
   6   1    -0.01  -0.01   0.00    -0.01  -0.01   0.01    -0.04  -0.04  -0.03
   7   1     0.01  -0.02  -0.01     0.02  -0.02  -0.02    -0.03  -0.05  -0.04
   8   8     0.05   0.01   0.00     0.11   0.01  -0.03     0.02   0.03   0.04
   9   1     0.02  -0.00  -0.00     0.04  -0.03  -0.02     0.04   0.19   0.01
  10   1     0.08   0.12   0.03     0.02  -0.01  -0.01     0.02  -0.04  -0.03
  11   8     0.29   0.45   0.06     0.06   0.02  -0.05     0.02  -0.05  -0.00
  12   1     0.08   0.10   0.02     0.01   0.01  -0.01     0.03   0.05   0.01
  13   1    -0.16  -0.13   0.02     0.02  -0.00   0.02    -0.01  -0.03  -0.01
  14   8    -0.50  -0.18  -0.04     0.06  -0.08  -0.00    -0.02  -0.03   0.08
  15   1    -0.07  -0.01  -0.01     0.02  -0.02  -0.00    -0.01   0.04   0.04
  16   1     0.02   0.01  -0.01     0.04   0.09   0.08     0.08  -0.05  -0.02
  17   8     0.15  -0.01  -0.05     0.07   0.27   0.41     0.04  -0.02  -0.01
  18   1     0.05  -0.02  -0.02     0.02   0.10   0.14    -0.16   0.13   0.02
  19   1     0.06  -0.02   0.00     0.01  -0.00  -0.01     0.03  -0.01  -0.16
  20   8     0.09  -0.18   0.06    -0.00  -0.03   0.02     0.09   0.07  -0.16
  21   1     0.03  -0.07   0.02     0.01  -0.00  -0.00    -0.52  -0.15   0.52
  22   1    -0.01   0.00  -0.01     0.06   0.02  -0.13    -0.00   0.03   0.02
  23   8    -0.03  -0.02   0.03     0.23  -0.07  -0.48     0.03  -0.05   0.00
  24   1     0.02  -0.02  -0.00     0.10  -0.05  -0.15    -0.02   0.07   0.06
  25   7    -0.00  -0.01  -0.14    -0.46  -0.11   0.16    -0.06   0.05  -0.00
  26   1     0.06  -0.26  -0.14    -0.14  -0.08   0.05    -0.06  -0.10   0.03
  27   1    -0.11   0.17  -0.15    -0.11   0.02   0.03    -0.06  -0.12   0.03
  28   1     0.10   0.04   0.24    -0.13  -0.03   0.10     0.22   0.05  -0.06
                     25                     26                     27
                        a                      a                      a 
 Frequencies --   372.8324               425.0242               416.6778
 Red. masses --    99.0000                99.0000                99.0000
 Frc consts  --    99.0000                99.0000                99.0000
 IR Inten    --    99.0000                99.0000                99.0000
 Raman Activ --     0.0000                 0.0000                 0.0000
 Depolar     --     0.0000                 0.0000                 0.0000
 Atom AN      X      Y      Z        X      Y      Z        X      Y      Z
   1   1     0.05   0.20  -0.04    -0.08   0.05   0.01     0.06   0.07  -0.03
   2   8     0.05   0.10   0.03     0.02   0.03   0.01     0.01   0.05  -0.00
   3   1    -0.04  -0.43   0.07     0.04  -0.08   0.11    -0.04  -0.22   0.01
   4   1     0.01  -0.03   0.08     0.05  -0.11  -0.02    -0.04   0.06  -0.04
   5   8    -0.01  -0.09   0.12    -0.04  -0.03  -0.02     0.05  -0.04   0.04
   6   1     0.01  -0.01   0.04     0.07   0.08   0.01    -0.04  -0.07   0.01
   7   1     0.05  -0.05   0.04    -0.00  -0.28  -0.07     0.06   0.07   0.08
   8   8    -0.02  -0.01   0.01    -0.01  -0.06   0.01     0.00   0.00  -0.03
   9   1    -0.09   0.22   0.07    -0.03   0.71   0.10    -0.08  -0.11   0.03
  10   1    -0.03   0.03   0.03     0.02  -0.02  -0.05    -0.03   0.08  -0.00
  11   8    -0.02  -0.04  -0.02     0.02   0.01  -0.05    -0.03  -0.02   0.00
  12   1    -0.03  -0.03  -0.02     0.06  -0.08   0.02     0.00  -0.07   0.00
  13   1     0.03   0.10  -0.01    -0.02  -0.05  -0.03    -0.09  -0.24  -0.10
  14   8     0.01   0.06  -0.16    -0.01   0.01  -0.00     0.02   0.07   0.02
  15   1    -0.01  -0.04  -0.06    -0.01   0.01   0.01     0.02   0.08   0.02
  16   1    -0.02  -0.03   0.06     0.09  -0.05  -0.02     0.29  -0.11  -0.13
  17   8    -0.01   0.05   0.02     0.02   0.00   0.00     0.11  -0.10  -0.04
  18   1     0.04  -0.07  -0.06    -0.10   0.09   0.03    -0.54   0.49   0.16
  19   1    -0.01  -0.02  -0.04    -0.08  -0.01   0.19    -0.02  -0.00   0.04
  20   8     0.05   0.00  -0.06    -0.04   0.01   0.02    -0.00   0.01  -0.01
  21   1    -0.21  -0.05   0.20     0.21   0.02  -0.19     0.02  -0.01  -0.01
  22   1    -0.01  -0.06  -0.13    -0.03   0.07   0.01    -0.02   0.04   0.02
  23   8    -0.01  -0.03  -0.02     0.01  -0.04  -0.04    -0.07   0.07   0.04
  24   1     0.02   0.24   0.18     0.02   0.07   0.04     0.04  -0.17  -0.13
  25   7     0.02  -0.06  -0.13    -0.05   0.01   0.04     0.02  -0.04  -0.01
  26   1    -0.24  -0.11   0.19    -0.01  -0.09  -0.00     0.01   0.02   0.00
  27   1     0.35   0.28   0.03    -0.14  -0.19   0.02     0.05   0.09  -0.01
  28   1    -0.12  -0.02   0.19     0.25   0.04  -0.09    -0.10  -0.02   0.05
                     28                     29                     30
                        a                      a                      a 
 Frequencies --   458.8697               502.1959               489.4800
 Red. masses --    99.0000                99.0000                99.0000
 Frc consts  --    99.0000                99.0000                99.0000
 IR Inten    --    99.0000                99.0000                99.0000
 Raman Activ --     0.0000                 0.0000                 0.0000
 Depolar     --     0.0000                 0.0000                 0.0000
 Atom AN      X      Y      Z        X      Y      Z        X      Y      Z
   1   1    -0.25   0.09   0.03     0.42  -0.27  -0.02     0.03  -0.05   0.01
   2   8     0.07   0.02  -0.04     0.02   0.09   0.10     0.02   0.04   0.00
   3   1     0.13  -0.14   0.28    -0.22  -0.15  -0.37    -0.02  -0.08  -0.01
   4   1     0.09  -0.16  -0.03    -0.03   0.07   0.15    -0.16   0.27  -0.12
   5   8    -0.03  -0.00  -0.00     0.00   0.02   0.01     0.11  -0.02   0.06
   6   1     0.12   0.13   0.07    -0.07  -0.05  -0.20    -0.17  -0.23   0.14
   7   1    -0.39   0.07  -0.35    -0.19   0.31  -0.10    -0.19   0.09  -0.16
   8   8    -0.05  -0.04   0.13    -0.03  -0.13   0.04    -0.02  -0.04   0.05
   9   1     0.50  -0.05  -0.25     0.20   0.21  -0.07     0.23   0.09  -0.10
  10   1    -0.01  -0.03   0.07     0.03  -0.08  -0.01    -0.05   0.15  -0.02
  11   8     0.02  -0.00   0.01    -0.00   0.01  -0.02    -0.03  -0.01  -0.01
  12   1    -0.09   0.10  -0.05     0.00   0.07   0.00     0.03  -0.22   0.01
  13   1     0.00   0.02  -0.04     0.02   0.03  -0.18    -0.06  -0.11   0.32
  14   8    -0.02   0.01  -0.02     0.01  -0.03   0.04    -0.03   0.05  -0.11
  15   1    -0.05  -0.02  -0.00    -0.15   0.09   0.06     0.30  -0.09  -0.10
  16   1     0.09  -0.05  -0.02    -0.03  -0.03   0.06    -0.12   0.03   0.06
  17   8     0.01  -0.00   0.00     0.02   0.02   0.02     0.00  -0.01  -0.01
  18   1    -0.08   0.08   0.03    -0.03  -0.03  -0.06    -0.01  -0.05  -0.07
  19   1     0.02  -0.04  -0.20    -0.08  -0.09  -0.06     0.09   0.17   0.26
  20   8     0.00  -0.02   0.04     0.01  -0.02   0.03    -0.05   0.08  -0.06
  21   1    -0.06   0.12   0.01     0.01   0.16  -0.08     0.08  -0.33   0.07
  22   1     0.01  -0.02   0.01    -0.05   0.07  -0.11    -0.03   0.04  -0.07
  23   8    -0.01   0.01  -0.01    -0.04  -0.02   0.01    -0.03   0.00   0.01
  24   1    -0.03   0.02   0.01     0.17   0.03   0.02     0.11  -0.01  -0.01
  25   7     0.02  -0.00  -0.00     0.02  -0.02   0.03     0.01  -0.01   0.02
  26   1     0.01   0.03  -0.01     0.02  -0.01  -0.01     0.05   0.04  -0.03
  27   1     0.00   0.00  -0.00    -0.03  -0.01  -0.01    -0.04  -0.02  -0.01
  28   1    -0.04  -0.01  -0.01     0.01  -0.00   0.01    -0.03  -0.01  -0.02
                     31                     32                     33
                        a                      a                      a 
 Frequencies --   391.8950               454.6071               563.1265
 Red. masses --    99.0000                99.0000                99.0000
 Frc consts  --    99.0000                99.0000                99.0000
 IR Inten    --    99.0000                99.0000                99.0000
 Raman Activ --     0.0000                 0.0000                 0.0000
 Depolar     --     0.0000                 0.0000                 0.0000
 Atom AN      X      Y      Z        X      Y      Z        X      Y      Z
   1   1    -0.04  -0.24   0.06     0.03   0.00  -0.00    -0.05   0.16  -0.02
   2   8    -0.02  -0.08   0.04     0.00   0.01   0.02    -0.01  -0.01   0.00
   3   1     0.04   0.45  -0.09    -0.01   0.01  -0.02     0.04   0.04   0.08
   4   1    -0.02   0.04  -0.11     0.03  -0.02   0.06    -0.17   0.35   0.16
   5   8    -0.00   0.08  -0.18    -0.00   0.03  -0.07     0.17  -0.05  -0.02
   6   1    -0.01   0.01  -0.08     0.02   0.03  -0.05    -0.24  -0.31  -0.05
   7   1    -0.06  -0.10  -0.09     0.01   0.01   0.01     0.01  -0.45  -0.11
   8   8     0.02  -0.00   0.02     0.00   0.01  -0.01    -0.03   0.08   0.02
   9   1     0.09   0.06  -0.04    -0.01   0.02   0.01     0.03   0.03  -0.02
  10   1    -0.05   0.07   0.07     0.06  -0.28   0.11     0.05  -0.24   0.13
  11   8    -0.03   0.02  -0.02     0.05   0.07  -0.02     0.02  -0.01   0.00
  12   1    -0.06  -0.09  -0.04    -0.09   0.08  -0.06    -0.15   0.19  -0.08
  13   1    -0.02  -0.08   0.04     0.21   0.60   0.11    -0.02  -0.06  -0.22
  14   8     0.02  -0.07   0.17    -0.08  -0.12   0.07     0.01   0.03   0.02
  15   1     0.04   0.03   0.05    -0.18  -0.21  -0.03    -0.13   0.08   0.05
  16   1     0.08  -0.05  -0.01     0.06  -0.14   0.06    -0.08   0.15  -0.07
  17   8     0.03   0.00  -0.01     0.07  -0.06  -0.01     0.01  -0.03  -0.03
  18   1    -0.10   0.08   0.01    -0.25   0.11  -0.08     0.07   0.02   0.09
  19   1    -0.02   0.01   0.07     0.21   0.22   0.11     0.08   0.03  -0.12
  20   8    -0.03  -0.00   0.05    -0.06   0.01  -0.01    -0.02  -0.02   0.04
  21   1     0.20   0.05  -0.19     0.12  -0.29   0.02     0.03   0.05  -0.05
  22   1     0.03  -0.12  -0.05    -0.01   0.02  -0.00    -0.05   0.06  -0.10
  23   8     0.02  -0.04   0.02    -0.02   0.03  -0.00    -0.06  -0.03   0.02
  24   1    -0.10   0.21   0.17     0.03  -0.07  -0.06     0.15   0.02   0.02
  25   7     0.00  -0.04  -0.13     0.00  -0.00  -0.00     0.04  -0.01   0.02
  26   1    -0.21  -0.06   0.17     0.01   0.02  -0.00     0.06   0.08  -0.03
  27   1     0.33   0.27   0.03     0.01   0.02  -0.00     0.00   0.03  -0.01
  28   1    -0.16  -0.02   0.15    -0.04  -0.01   0.01    -0.10  -0.02  -0.00
                     34                     35                     36
                        a                      a                      a 
 Frequencies --   579.6731               593.6856               404.4429
 Red. masses --    99.0000                99.0000                99.0000
 Frc consts  --    99.0000                99.0000                99.0000
 IR Inten    --    99.0000                99.0000                99.0000
 Raman Activ --     0.0000                 0.0000                 0.0000
 Depolar     --     0.0000                 0.0000                 0.0000
 Atom AN      X      Y      Z        X      Y      Z        X      Y      Z
   1   1    -0.11   0.11  -0.00     0.09  -0.03  -0.01     0.00  -0.12  -0.02
   2   8     0.00  -0.01  -0.02     0.01   0.05   0.03    -0.06  -0.12  -0.13
   3   1     0.06  -0.03   0.13    -0.05  -0.10  -0.07     0.01   0.32  -0.13
   4   1    -0.06   0.13   0.04    -0.02   0.02  -0.10     0.04  -0.05   0.20
   5   8     0.09  -0.02  -0.03     0.00  -0.01   0.06     0.09  -0.12   0.62
   6   1    -0.10  -0.12  -0.11    -0.02  -0.01  -0.04     0.03  -0.02   0.16
   7   1    -0.05  -0.06  -0.07     0.02  -0.20  -0.03    -0.03  -0.04  -0.04
   8   8     0.00   0.03   0.02    -0.02   0.04  -0.00     0.02   0.01   0.00
   9   1     0.08  -0.11  -0.05    -0.01   0.03   0.00     0.05   0.00  -0.02
  10   1    -0.02   0.17  -0.15    -0.04   0.01   0.14    -0.01   0.02  -0.03
  11   8    -0.05   0.11  -0.03     0.03  -0.06   0.01    -0.04  -0.00  -0.01
  12   1     0.24  -0.36   0.12    -0.18   0.14  -0.10     0.02  -0.02   0.01
  13   1     0.10   0.23  -0.29    -0.07  -0.21  -0.04     0.03   0.12  -0.16
  14   8    -0.00  -0.13   0.11     0.02   0.03  -0.04    -0.01   0.18  -0.47
  15   1    -0.26   0.18   0.12     0.06   0.10   0.02    -0.08  -0.01  -0.12
  16   1    -0.10  -0.06   0.13    -0.14  -0.23   0.34     0.06  -0.04  -0.01
  17   8     0.05   0.01   0.03     0.07   0.07   0.08    -0.01  -0.02   0.02
  18   1    -0.08  -0.07  -0.16    -0.23  -0.16  -0.40    -0.08   0.06   0.02
  19   1    -0.26  -0.14   0.27     0.14   0.08  -0.16    -0.02  -0.00   0.03
  20   8     0.06   0.04  -0.07    -0.03  -0.02   0.04    -0.01   0.01   0.01
  21   1    -0.05  -0.00   0.05     0.03   0.01  -0.03     0.06   0.01  -0.06
  22   1     0.06  -0.07   0.09     0.12  -0.16   0.20     0.02  -0.04   0.04
  23   8     0.04   0.04  -0.01     0.10   0.10  -0.04     0.03  -0.01   0.00
  24   1    -0.14  -0.08  -0.06    -0.31  -0.14  -0.12    -0.07   0.02   0.02
  25   7    -0.02   0.01  -0.01    -0.04   0.03  -0.03    -0.02   0.01  -0.02
  26   1    -0.02  -0.01   0.01    -0.04  -0.03   0.01    -0.01   0.00   0.00
  27   1     0.01   0.01   0.00    -0.01  -0.03   0.01     0.01   0.01  -0.00
  28   1     0.00   0.00   0.00     0.05   0.02  -0.03    -0.01   0.00  -0.00
                     37                     38                     39
                        a                      a                      a 
 Frequencies --   528.4956               654.9807               779.1348
 Red. masses --    99.0000                99.0000                99.0000
 Frc consts  --    99.0000                99.0000                99.0000
 IR Inten    --    99.0000                99.0000                99.0000
 Raman Activ --     0.0000                 0.0000                 0.0000
 Depolar     --     0.0000                 0.0000                 0.0000
 Atom AN      X      Y      Z        X      Y      Z        X      Y      Z
   1   1     0.15   0.04  -0.03     0.14  -0.30   0.04    -0.05   0.18  -0.03
   2   8     0.01   0.02   0.05     0.01   0.16   0.02    -0.01  -0.06  -0.00
   3   1    -0.08  -0.13  -0.10    -0.11  -0.22  -0.14     0.05   0.08   0.06
   4   1    -0.07   0.14   0.05     0.05  -0.12  -0.16    -0.04   0.05  -0.05
   5   8     0.04   0.00  -0.03    -0.05   0.04   0.12     0.04  -0.04   0.08
   6   1    -0.10  -0.11  -0.01     0.06   0.12  -0.21    -0.07  -0.06  -0.23
   7   1    -0.06   0.02  -0.05     0.02  -0.60  -0.14    -0.00   0.18   0.05
   8   8    -0.02  -0.03   0.02    -0.02   0.14   0.03     0.00  -0.06  -0.01
   9   1     0.07   0.10  -0.03     0.06  -0.21  -0.06    -0.04   0.18   0.04
  10   1     0.00  -0.02   0.02    -0.07   0.26  -0.07    -0.08   0.36  -0.17
  11   8     0.01   0.01  -0.01    -0.01  -0.02   0.02    -0.02  -0.09   0.06
  12   1    -0.02   0.02  -0.01     0.06  -0.09   0.04     0.13  -0.09   0.09
  13   1     0.04   0.13   0.12     0.06   0.15   0.08     0.07   0.18  -0.01
  14   8    -0.03  -0.00   0.01    -0.01  -0.07  -0.01    -0.02  -0.11  -0.02
  15   1     0.03  -0.11  -0.04     0.03   0.01   0.00     0.03   0.21   0.08
  16   1     0.08   0.21  -0.27     0.10   0.00  -0.09    -0.03   0.04  -0.02
  17   8    -0.07  -0.09  -0.05    -0.04  -0.01  -0.02     0.01  -0.02  -0.01
  18   1     0.19   0.09   0.29     0.07   0.03   0.10    -0.01   0.03   0.03
  19   1    -0.02  -0.03  -0.02     0.05   0.03  -0.05     0.41   0.21  -0.47
  20   8     0.00  -0.00   0.01    -0.00  -0.00  -0.01    -0.11   0.00   0.08
  21   1     0.01   0.05  -0.03    -0.03  -0.03   0.04     0.08   0.05  -0.09
  22   1     0.16  -0.18   0.37    -0.03   0.05  -0.00    -0.01   0.01  -0.01
  23   8     0.15   0.05   0.01    -0.03  -0.01   0.00    -0.00  -0.01  -0.00
  24   1    -0.47  -0.15  -0.09     0.07   0.04   0.03     0.02   0.02   0.01
  25   7    -0.08   0.04  -0.08     0.03  -0.01   0.02    -0.01  -0.01   0.00
  26   1    -0.12  -0.10   0.07     0.06   0.05  -0.04     0.01  -0.00  -0.01
  27   1     0.05  -0.01   0.02    -0.03  -0.03  -0.00    -0.01  -0.00  -0.00
  28   1     0.11   0.03  -0.00    -0.05  -0.02  -0.03     0.00  -0.00   0.01
                     40                     41                     42
                        a                      a                      a 
 Frequencies --   808.2655               481.1649               824.4994
 Red. masses --    99.0000                99.0000                99.0000
 Frc consts  --    99.0000                99.0000                99.0000
 IR Inten    --    99.0000                99.0000                99.0000
 Raman Activ --     0.0000                 0.0000                 0.0000
 Depolar     --     0.0000                 0.0000                 0.0000
 Atom AN      X      Y      Z        X      Y      Z        X      Y      Z
   1   1     0.03  -0.13   0.02    -0.02   0.01   0.00    -0.01  -0.11   0.02
   2   8     0.00   0.04  -0.01    -0.00  -0.01  -0.01     0.00   0.03  -0.01
   3   1    -0.02  -0.06  -0.02     0.02   0.06   0.01    -0.01  -0.05  -0.00
   4   1    -0.02   0.06   0.08    -0.09   0.16  -0.06     0.03  -0.04   0.09
   5   8     0.01   0.02  -0.13     0.05   0.01  -0.02    -0.03   0.01  -0.02
   6   1     0.01  -0.04   0.36    -0.09  -0.12   0.13     0.04   0.04   0.02
   7   1     0.02  -0.08  -0.00     0.03  -0.08   0.01     0.00  -0.05  -0.01
   8   8    -0.00   0.02   0.00    -0.00   0.00  -0.00     0.00   0.01   0.01
   9   1    -0.00  -0.00   0.00    -0.04   0.05   0.03    -0.00  -0.05  -0.00
  10   1     0.06  -0.12  -0.09     0.02   0.05  -0.11     0.16  -0.49  -0.01
  11   8    -0.05   0.07   0.02     0.02  -0.01   0.02    -0.08   0.19   0.02
  12   1     0.17  -0.27   0.10     0.09   0.10   0.06     0.19  -0.48   0.11
  13   1    -0.02  -0.06  -0.11     0.07   0.27   0.39    -0.04  -0.08   0.11
  14   8     0.01   0.05   0.08    -0.09  -0.03  -0.04    -0.02   0.04  -0.06
  15   1    -0.10  -0.16  -0.04     0.19  -0.21  -0.11     0.10   0.10   0.01
  16   1     0.23  -0.16  -0.02    -0.02  -0.10   0.10    -0.14   0.08   0.04
  17   8    -0.06   0.05   0.01     0.04  -0.02  -0.01     0.04  -0.02   0.01
  18   1     0.09  -0.07  -0.01    -0.20   0.03  -0.12    -0.07   0.02  -0.02
  19   1     0.18   0.08  -0.23    -0.26  -0.30  -0.21     0.13   0.04  -0.22
  20   8    -0.04  -0.00   0.02     0.07  -0.05   0.06    -0.03  -0.02   0.02
  21   1     0.01   0.04  -0.03    -0.10   0.46  -0.11    -0.02   0.10  -0.03
  22   1     0.11  -0.48  -0.36    -0.02   0.03  -0.04    -0.06   0.32   0.27
  23   8    -0.04   0.11   0.08    -0.02   0.03   0.00     0.03  -0.07  -0.05
  24   1     0.01  -0.07  -0.05     0.08  -0.04  -0.03    -0.04   0.02   0.02
  25   7    -0.01   0.05   0.04     0.02  -0.01   0.01     0.02  -0.03  -0.03
  26   1     0.01  -0.01  -0.00     0.04   0.03  -0.02    -0.03  -0.01   0.03
  27   1    -0.05  -0.04   0.01    -0.01   0.01  -0.01     0.06   0.06  -0.00
  28   1     0.06   0.02  -0.02    -0.04  -0.01   0.01    -0.05  -0.01   0.03
                     43                     44                     45
                        a                      a                      a 
 Frequencies --   560.4213               848.2452               618.8571
 Red. masses --    99.0000                99.0000                99.0000
 Frc consts  --    99.0000                99.0000                99.0000
 IR Inten    --    99.0000                99.0000                99.0000
 Raman Activ --     0.0000                 0.0000                 0.0000
 Depolar     --     0.0000                 0.0000                 0.0000
 Atom AN      X      Y      Z        X      Y      Z        X      Y      Z
   1   1     0.04   0.08  -0.02    -0.01  -0.23   0.05     0.14   0.36  -0.09
   2   8    -0.01  -0.04   0.02     0.01   0.05  -0.01    -0.01  -0.09   0.10
   3   1    -0.01   0.07  -0.04    -0.01  -0.06  -0.01    -0.03   0.16  -0.12
   4   1     0.03  -0.01   0.26    -0.01   0.05   0.16     0.11  -0.09   0.60
   5   8    -0.02   0.01  -0.09    -0.01   0.02  -0.20    -0.08   0.01  -0.16
   6   1     0.00   0.01  -0.03     0.05  -0.01   0.50     0.02   0.06  -0.19
   7   1     0.02   0.00   0.03     0.01  -0.04  -0.00    -0.05  -0.17  -0.09
   8   8    -0.01  -0.00  -0.01     0.01   0.00   0.00    -0.03   0.04   0.03
   9   1    -0.03   0.02   0.01    -0.02   0.02   0.01     0.11  -0.06  -0.07
  10   1    -0.20   0.29   0.48    -0.08   0.32  -0.14     0.02   0.08  -0.23
  11   8     0.16   0.09   0.01    -0.01  -0.10  -0.01    -0.06  -0.05  -0.01
  12   1    -0.32  -0.50  -0.22     0.08   0.17   0.05     0.17   0.09   0.11
  13   1     0.02   0.02   0.00     0.00  -0.02  -0.20    -0.06  -0.16   0.16
  14   8     0.04   0.01  -0.01     0.03   0.03   0.12     0.03   0.06   0.02
  15   1    -0.06  -0.20  -0.07    -0.23  -0.25  -0.05     0.11  -0.12  -0.06
  16   1     0.01  -0.00  -0.00    -0.18   0.11   0.04     0.09  -0.12   0.04
  17   8     0.00  -0.00   0.00     0.06  -0.02   0.01    -0.00   0.03   0.04
  18   1     0.00   0.00   0.01    -0.08   0.02  -0.03    -0.03  -0.02  -0.06
  19   1    -0.02  -0.05  -0.10     0.10   0.07  -0.07     0.02   0.03   0.05
  20   8     0.01   0.00  -0.00    -0.03   0.01   0.01     0.00   0.01  -0.01
  21   1    -0.08   0.11   0.02     0.04  -0.04  -0.02     0.00  -0.08   0.04
  22   1    -0.03   0.08   0.00    -0.06   0.30   0.25    -0.01   0.03   0.00
  23   8    -0.01  -0.02  -0.01     0.03  -0.07  -0.05    -0.01   0.01  -0.01
  24   1     0.06  -0.02  -0.01    -0.03   0.03   0.03    -0.00  -0.05  -0.04
  25   7    -0.02  -0.01   0.03     0.02  -0.03  -0.03     0.01   0.01  -0.02
  26   1     0.05   0.01  -0.04    -0.01  -0.01   0.01    -0.02   0.00   0.01
  27   1    -0.07  -0.06  -0.00     0.03   0.03  -0.01     0.03   0.02   0.00
  28   1     0.05   0.00  -0.05    -0.06  -0.02   0.03    -0.02  -0.00   0.01
                     46                     47                     48
                        a                      a                      a 
 Frequencies --   927.2619               716.6763               694.2115
 Red. masses --    99.0000                99.0000                99.0000
 Frc consts  --    99.0000                99.0000                99.0000
 IR Inten    --    99.0000                99.0000                99.0000
 Raman Activ --     0.0000                 0.0000                 0.0000
 Depolar     --     0.0000                 0.0000                 0.0000
 Atom AN      X      Y      Z        X      Y      Z        X      Y      Z
   1   1    -0.02   0.10  -0.02     0.03   0.01  -0.01     0.30   0.52  -0.15
   2   8    -0.00  -0.02   0.00     0.01   0.00   0.02     0.03  -0.12   0.16
   3   1     0.02   0.04   0.02    -0.02  -0.01  -0.03    -0.12   0.17  -0.31
   4   1    -0.05   0.04  -0.33     0.07  -0.12   0.06     0.00  -0.10  -0.44
   5   8     0.04   0.02   0.18    -0.05  -0.00   0.00    -0.04  -0.03  -0.03
   6   1    -0.04   0.00  -0.40     0.07   0.10  -0.08     0.09   0.05   0.37
   7   1    -0.02   0.05  -0.00    -0.00  -0.04  -0.01    -0.04  -0.11  -0.06
   8   8     0.01  -0.01   0.00    -0.00   0.01   0.00    -0.04   0.02   0.01
   9   1    -0.00   0.01   0.00     0.01  -0.02  -0.01     0.10  -0.03  -0.06
  10   1     0.03  -0.05  -0.06     0.00   0.00  -0.02     0.00  -0.03   0.02
  11   8    -0.03   0.02  -0.02    -0.00   0.01  -0.00    -0.01   0.03  -0.00
  12   1     0.12  -0.05   0.07     0.03  -0.01   0.01     0.01  -0.09   0.00
  13   1    -0.07  -0.19  -0.12    -0.01  -0.03   0.05     0.02   0.06  -0.09
  14   8     0.06   0.15   0.11     0.01   0.02  -0.01    -0.03  -0.03   0.02
  15   1    -0.26  -0.65  -0.20    -0.01  -0.07  -0.02    -0.06   0.07   0.04
  16   1    -0.01  -0.01   0.03    -0.59   0.46   0.03    -0.03   0.03  -0.00
  17   8    -0.01   0.02   0.01     0.17  -0.15  -0.04     0.01  -0.00   0.00
  18   1     0.01  -0.04  -0.03    -0.27   0.22   0.06     0.00   0.01   0.01
  19   1     0.04   0.02  -0.05    -0.01  -0.01   0.00    -0.00  -0.01  -0.02
  20   8    -0.00  -0.01   0.01     0.00  -0.00  -0.01    -0.01   0.00  -0.01
  21   1     0.00   0.02  -0.01    -0.01   0.01   0.00    -0.01   0.01   0.00
  22   1    -0.01   0.06   0.05     0.09  -0.35  -0.23    -0.03   0.08  -0.00
  23   8     0.01  -0.01  -0.01     0.03   0.02   0.05     0.00  -0.03   0.01
  24   1    -0.01   0.02   0.01    -0.01   0.04   0.04     0.04   0.01   0.01
  25   7     0.01  -0.00  -0.02    -0.01   0.04   0.03     0.00  -0.00  -0.00
  26   1    -0.01   0.00   0.01     0.01  -0.00  -0.01     0.00   0.00  -0.00
  27   1     0.01   0.00  -0.00    -0.04  -0.04   0.00     0.01   0.01  -0.00
  28   1    -0.03  -0.01   0.01     0.04   0.02  -0.02    -0.00  -0.00   0.00
                     49                     50                     51
                        a                      a                      a 
 Frequencies --  1574.0496              1566.3005              1588.8371
 Red. masses --    99.0000                99.0000                99.0000
 Frc consts  --    99.0000                99.0000                99.0000
 IR Inten    --    99.0000                99.0000                99.0000
 Raman Activ --     0.0000                 0.0000                 0.0000
 Depolar     --     0.0000                 0.0000                 0.0000
 Atom AN      X      Y      Z        X      Y      Z        X      Y      Z
   1   1     0.03  -0.01  -0.00     0.05  -0.03  -0.00     0.30  -0.06  -0.05
   2   8    -0.01   0.00  -0.01    -0.02   0.00  -0.02    -0.11   0.00  -0.06
   3   1     0.02   0.00   0.03     0.03  -0.00   0.05     0.13   0.04   0.26
   4   1     0.00  -0.01  -0.00     0.02  -0.04  -0.01     0.03  -0.05  -0.02
   5   8     0.00   0.00   0.00     0.00   0.02   0.01     0.00   0.03   0.00
   6   1    -0.00  -0.00   0.00    -0.04  -0.04  -0.00    -0.04  -0.04   0.01
   7   1     0.06  -0.01   0.06     0.20  -0.02   0.21     0.28  -0.03   0.29
   8   8    -0.03   0.00  -0.01    -0.10  -0.01  -0.02    -0.15  -0.01  -0.03
   9   1     0.06   0.01  -0.03     0.22   0.05  -0.12     0.34   0.05  -0.18
  10   1    -0.03  -0.00   0.09    -0.08  -0.00   0.26     0.10   0.00  -0.35
  11   8    -0.01  -0.00  -0.03    -0.03  -0.02  -0.09     0.04   0.03   0.12
  12   1     0.07   0.01   0.04     0.21   0.06   0.13    -0.26  -0.09  -0.16
  13   1    -0.00  -0.01   0.03    -0.01  -0.02   0.06    -0.01  -0.03   0.07
  14   8     0.01  -0.00  -0.01     0.02   0.00  -0.02     0.02   0.00  -0.01
  15   1    -0.03   0.01   0.01    -0.06   0.02   0.02    -0.11  -0.00   0.02
  16   1     0.00   0.00  -0.01    -0.01  -0.02   0.03    -0.05  -0.08   0.11
  17   8    -0.00  -0.00   0.00    -0.00  -0.00  -0.02    -0.00   0.00  -0.05
  18   1    -0.00  -0.00  -0.00     0.01   0.01   0.03     0.05   0.05   0.11
  19   1    -0.10  -0.12  -0.14    -0.21  -0.25  -0.31     0.06   0.08   0.10
  20   8     0.00   0.07   0.03     0.00   0.16   0.07    -0.00  -0.05  -0.02
  21   1     0.09  -0.17   0.00     0.20  -0.38   0.01    -0.06   0.11   0.00
  22   1    -0.00   0.01  -0.00    -0.08   0.13  -0.19    -0.06   0.10  -0.13
  23   8     0.00  -0.00  -0.00     0.07  -0.02   0.05     0.05  -0.01   0.03
  24   1    -0.01   0.00   0.00    -0.19  -0.03  -0.01    -0.15  -0.02  -0.01
  25   7    -0.03  -0.05  -0.22    -0.02   0.06   0.07     0.02  -0.06   0.00
  26   1    -0.03   0.46   0.09     0.08  -0.22  -0.11    -0.06   0.11   0.08
  27   1    -0.02  -0.36   0.09     0.10   0.04   0.05    -0.09   0.09  -0.08
  28   1     0.16   0.08   0.66    -0.11  -0.03  -0.19     0.07   0.01  -0.01
                     52                     53                     54
                        a                      a                      a 
 Frequencies --  1600.8492              1580.9588              1610.9264
 Red. masses --    99.0000                99.0000                99.0000
 Frc consts  --    99.0000                99.0000                99.0000
 IR Inten    --    99.0000                99.0000                99.0000
 Raman Activ --     0.0000                 0.0000                 0.0000
 Depolar     --     0.0000                 0.0000                 0.0000
 Atom AN      X      Y      Z        X      Y      Z        X      Y      Z
   1   1     0.15  -0.02  -0.03    -0.01   0.00   0.00     0.43  -0.04  -0.09
   2   8    -0.05  -0.00  -0.02     0.00   0.00   0.00    -0.14  -0.00  -0.06
   3   1     0.06   0.02   0.13    -0.01  -0.00  -0.01     0.17   0.06   0.34
   4   1    -0.01   0.01   0.00    -0.00   0.00  -0.00    -0.01   0.01   0.00
   5   8    -0.01  -0.01  -0.00    -0.00  -0.00  -0.00    -0.02  -0.01  -0.00
   6   1     0.01   0.02   0.00     0.00   0.01   0.00     0.04   0.04   0.00
   7   1     0.11  -0.01   0.12     0.03   0.00   0.03    -0.21   0.00  -0.22
   8   8    -0.06  -0.00  -0.01    -0.01  -0.00  -0.00     0.11   0.01   0.02
   9   1     0.15   0.03  -0.08     0.04   0.03  -0.02    -0.25  -0.05   0.13
  10   1    -0.14   0.02   0.45     0.07  -0.01  -0.22    -0.00  -0.02   0.03
  11   8    -0.07  -0.04  -0.17     0.03   0.02   0.08    -0.00   0.00  -0.01
  12   1     0.37   0.13   0.22    -0.18  -0.06  -0.11     0.02  -0.00   0.01
  13   1     0.00   0.01  -0.03    -0.00  -0.01   0.02     0.02   0.06  -0.22
  14   8    -0.01  -0.00   0.00     0.00   0.00  -0.00    -0.07   0.00   0.07
  15   1     0.06   0.01  -0.00    -0.03  -0.00   0.00     0.26  -0.06  -0.06
  16   1    -0.01  -0.01   0.01     0.01   0.01  -0.01    -0.14  -0.21   0.28
  17   8     0.00   0.00  -0.01    -0.00  -0.00   0.01     0.00   0.01  -0.13
  18   1     0.01   0.01   0.02    -0.01  -0.01  -0.02     0.12   0.14   0.27
  19   1     0.21   0.26   0.30     0.03   0.04   0.05    -0.06  -0.07  -0.08
  20   8    -0.00  -0.15  -0.07     0.00  -0.03  -0.01     0.00   0.04   0.02
  21   1    -0.19   0.36  -0.00    -0.03   0.06   0.00     0.05  -0.09   0.00
  22   1    -0.02   0.02  -0.03     0.00  -0.00   0.01     0.00   0.00   0.01
  23   8     0.01  -0.00   0.01    -0.00   0.00  -0.00     0.01   0.00  -0.01
  24   1    -0.03  -0.00   0.00     0.01   0.00  -0.00    -0.01   0.00   0.00
  25   7    -0.03   0.03  -0.02    -0.13   0.19  -0.04    -0.01   0.02  -0.00
  26   1     0.05  -0.02  -0.06     0.28  -0.31  -0.35     0.02  -0.05  -0.04
  27   1     0.07  -0.09   0.06     0.42  -0.40   0.34     0.04  -0.04   0.03
  28   1    -0.02   0.00   0.06    -0.22  -0.00   0.18    -0.03  -0.00   0.00
                     55                     56                     57
                        a                      a                      a 
 Frequencies --  1550.7117              1605.6639              1253.3283
 Red. masses --    99.0000                99.0000                99.0000
 Frc consts  --    99.0000                99.0000                99.0000
 IR Inten    --    99.0000                99.0000                99.0000
 Raman Activ --     0.0000                 0.0000                 0.0000
 Depolar     --     0.0000                 0.0000                 0.0000
 Atom AN      X      Y      Z        X      Y      Z        X      Y      Z
   1   1     0.12  -0.01  -0.03     0.19  -0.01  -0.04    -0.00  -0.01   0.00
   2   8    -0.04  -0.01  -0.02    -0.06  -0.00  -0.02     0.00   0.00   0.00
   3   1     0.06   0.03   0.10     0.07   0.03   0.14    -0.00  -0.01  -0.00
   4   1     0.08  -0.13  -0.01    -0.04   0.06  -0.02     0.00  -0.00  -0.00
   5   8     0.01   0.06  -0.00     0.01  -0.03  -0.01    -0.00   0.00   0.00
   6   1    -0.11  -0.12   0.02     0.04   0.04   0.03     0.00   0.01  -0.00
   7   1     0.14  -0.01   0.14    -0.15   0.01  -0.16    -0.02  -0.01  -0.02
   8   8    -0.07  -0.01  -0.01     0.08   0.00   0.01     0.01  -0.00   0.00
   9   1     0.16   0.03  -0.08    -0.18  -0.03   0.09    -0.01   0.00   0.01
  10   1    -0.01  -0.01   0.03    -0.02   0.03   0.05     0.00  -0.01  -0.01
  11   8    -0.01   0.00  -0.01    -0.01  -0.01  -0.02    -0.01  -0.01  -0.00
  12   1     0.03   0.00   0.02     0.05   0.02   0.03     0.02   0.01   0.01
  13   1    -0.00  -0.01   0.02    -0.05  -0.15   0.53    -0.00  -0.01   0.00
  14   8     0.01   0.00  -0.00     0.17  -0.01  -0.16     0.00   0.00   0.00
  15   1    -0.03   0.00   0.00    -0.63   0.16   0.14    -0.01  -0.02  -0.00
  16   1    -0.01  -0.01   0.01     0.01  -0.04   0.04    -0.00   0.00   0.00
  17   8     0.00   0.01   0.00    -0.01   0.00  -0.02     0.00   0.00   0.00
  18   1     0.00   0.00   0.00     0.03   0.02   0.04    -0.00  -0.00  -0.00
  19   1    -0.05  -0.05  -0.07     0.01   0.01   0.01     0.00   0.00  -0.01
  20   8     0.00   0.03   0.02    -0.00  -0.00  -0.00    -0.00   0.00   0.00
  21   1     0.04  -0.08   0.00    -0.00   0.01  -0.00     0.00  -0.00  -0.00
  22   1     0.21  -0.34   0.54     0.01  -0.02   0.01    -0.02  -0.01   0.02
  23   8    -0.18   0.05  -0.14    -0.01   0.01  -0.00     0.02   0.01  -0.01
  24   1     0.53   0.10   0.05     0.01   0.00   0.00     0.01   0.00  -0.00
  25   7    -0.01   0.02   0.01     0.00   0.01   0.00    -0.34  -0.21   0.08
  26   1    -0.01  -0.06  -0.00     0.00  -0.03  -0.01     0.33   0.31  -0.26
  27   1     0.02   0.03  -0.00     0.01  -0.01   0.01     0.41   0.36   0.06
  28   1    -0.01  -0.01  -0.06    -0.02  -0.00  -0.01     0.49   0.09  -0.10
                     58                     59                     60
                        a                      a                      a 
 Frequencies --  1620.6967              1547.5145              3321.8365
 Red. masses --    99.0000                99.0000                99.0000
 Frc consts  --    99.0000                99.0000                99.0000
 IR Inten    --    99.0000                99.0000                99.0000
 Raman Activ --     0.0000                 0.0000                 0.0000
 Depolar     --     0.0000                 0.0000                 0.0000
 Atom AN      X      Y      Z        X      Y      Z        X      Y      Z
   1   1     0.37  -0.04  -0.07    -0.05  -0.01   0.02     0.00   0.00   0.01
   2   8    -0.12  -0.00  -0.05     0.02   0.00   0.00    -0.00  -0.00  -0.00
   3   1     0.15   0.05   0.29    -0.02  -0.01  -0.04    -0.00   0.00   0.00
   4   1     0.04  -0.06  -0.02     0.33  -0.52  -0.04    -0.03  -0.02   0.00
   5   8    -0.01   0.02   0.01     0.03   0.26  -0.01     0.01   0.00  -0.00
   6   1    -0.02  -0.03   0.01    -0.45  -0.50   0.05     0.00   0.00   0.00
   7   1    -0.07  -0.00  -0.07    -0.09   0.01  -0.10    -0.00  -0.00   0.00
   8   8     0.04   0.00   0.01     0.05   0.00   0.01    -0.00   0.00  -0.00
   9   1    -0.08  -0.02   0.04    -0.11  -0.01   0.06     0.01   0.00   0.01
  10   1     0.01  -0.00  -0.02    -0.01   0.01   0.02     0.24   0.08   0.03
  11   8     0.00   0.00   0.01    -0.00  -0.01  -0.01     0.05  -0.01  -0.19
  12   1    -0.02  -0.01  -0.01     0.02   0.01   0.01    -0.45  -0.04   0.73
  13   1     0.01   0.02  -0.06    -0.00  -0.01   0.03     0.02  -0.00  -0.00
  14   8    -0.02   0.00   0.02     0.01   0.00   0.00    -0.01   0.00  -0.00
  15   1     0.09  -0.02  -0.01    -0.04  -0.01  -0.01     0.00  -0.01   0.02
  16   1     0.20   0.34  -0.44    -0.03  -0.03   0.04     0.00   0.01   0.01
  17   8     0.00  -0.03   0.21     0.00  -0.00  -0.02    -0.00  -0.00  -0.00
  18   1    -0.20  -0.21  -0.44     0.02   0.02   0.04    -0.00  -0.00   0.00
  19   1    -0.02  -0.03  -0.03     0.04   0.04   0.03    -0.22   0.27  -0.08
  20   8     0.00   0.01   0.01    -0.00  -0.02  -0.01     0.06  -0.06   0.02
  21   1     0.02  -0.04   0.00    -0.02   0.05  -0.01    -0.00  -0.01  -0.01
  22   1    -0.03   0.03  -0.05    -0.04   0.07  -0.10     0.01   0.00  -0.00
  23   8     0.01  -0.01   0.01     0.03  -0.01   0.02    -0.00  -0.00   0.00
  24   1    -0.03   0.01   0.01    -0.10  -0.02  -0.01    -0.00   0.00  -0.00
  25   7    -0.00   0.00   0.01    -0.00   0.00  -0.01     0.01  -0.01  -0.02
  26   1     0.00  -0.02  -0.00     0.01   0.01  -0.01    -0.01   0.00  -0.02
  27   1    -0.00   0.01  -0.00     0.01  -0.02   0.01    -0.04   0.04   0.10
  28   1    -0.01  -0.00  -0.02    -0.00   0.00   0.03     0.01  -0.02  -0.00
                     61                     62                     63
                        a                      a                      a 
 Frequencies --  3195.6267              3269.6681              3436.9585
 Red. masses --    99.0000                99.0000                99.0000
 Frc consts  --    99.0000                99.0000                99.0000
 IR Inten    --    99.0000                99.0000                99.0000
 Raman Activ --     0.0000                 0.0000                 0.0000
 Depolar     --     0.0000                 0.0000                 0.0000
 Atom AN      X      Y      Z        X      Y      Z        X      Y      Z
   1   1     0.00   0.00   0.02     0.00   0.00   0.00     0.01  -0.03  -0.11
   2   8    -0.00  -0.00  -0.01     0.00  -0.00  -0.00     0.20  -0.03  -0.08
   3   1    -0.00  -0.00   0.00    -0.00   0.00   0.00    -0.80   0.16   0.41
   4   1     0.03   0.03  -0.01     0.00   0.00   0.00     0.00  -0.00  -0.00
   5   8    -0.02   0.00   0.01     0.00  -0.00  -0.00     0.00  -0.00   0.00
   6   1     0.04  -0.04  -0.01    -0.01   0.01   0.00    -0.00   0.01   0.00
   7   1     0.00   0.00  -0.00    -0.01   0.00   0.00     0.20   0.05  -0.19
   8   8    -0.00  -0.00   0.00    -0.00  -0.00  -0.01    -0.04  -0.01   0.05
   9   1    -0.00   0.00  -0.00     0.01   0.00   0.02    -0.02   0.00  -0.02
  10   1    -0.70  -0.23  -0.19     0.14   0.05   0.05     0.00   0.00   0.00
  11   8     0.19   0.06   0.02    -0.09  -0.01   0.08    -0.00  -0.00  -0.00
  12   1    -0.05  -0.00   0.13     0.21   0.01  -0.35     0.00   0.00  -0.00
  13   1    -0.05   0.01   0.01     0.01   0.00   0.00    -0.00   0.00  -0.00
  14   8     0.02  -0.02   0.05    -0.00  -0.00  -0.00     0.00   0.00  -0.00
  15   1    -0.03   0.09  -0.23     0.00   0.00   0.00     0.00  -0.00   0.00
  16   1    -0.23  -0.27  -0.31     0.01   0.01   0.01    -0.00  -0.01  -0.01
  17   8     0.06   0.07   0.07    -0.00  -0.00  -0.00    -0.00  -0.00   0.01
  18   1    -0.01  -0.02   0.03     0.00   0.00  -0.00     0.02   0.02  -0.02
  19   1    -0.14   0.16  -0.05    -0.54   0.64  -0.20    -0.00   0.00   0.00
  20   8     0.04  -0.04   0.01     0.14  -0.15   0.05     0.00   0.00   0.00
  21   1     0.00  -0.01  -0.00    -0.00  -0.03  -0.02    -0.00  -0.00  -0.00
  22   1     0.03   0.01  -0.01     0.01   0.00  -0.00     0.00   0.00  -0.00
  23   8    -0.01  -0.00   0.00    -0.00  -0.00   0.00    -0.00   0.00  -0.00
  24   1    -0.00   0.00  -0.01    -0.00   0.00  -0.00    -0.00  -0.01   0.01
  25   7    -0.00   0.00   0.01     0.00  -0.00  -0.01     0.02  -0.03   0.01
  26   1    -0.00   0.00   0.00     0.00   0.00  -0.00    -0.03   0.00  -0.04
  27   1     0.01  -0.01  -0.02    -0.02   0.01   0.03    -0.01   0.00   0.02
  28   1    -0.00   0.00  -0.00     0.00  -0.01  -0.00    -0.03   0.12  -0.01
                     64                     65                     66
                        a                      a                      a 
 Frequencies --  3180.5099              3037.0283              3421.5575
 Red. masses --    99.0000                99.0000                99.0000
 Frc consts  --    99.0000                99.0000                99.0000
 IR Inten    --    99.0000                99.0000                99.0000
 Raman Activ --     0.0000                 0.0000                 0.0000
 Depolar     --     0.0000                 0.0000                 0.0000
 Atom AN      X      Y      Z        X      Y      Z        X      Y      Z
   1   1    -0.02  -0.01  -0.08    -0.02  -0.02  -0.09     0.02   0.01   0.04
   2   8     0.00   0.00   0.02     0.00   0.00   0.02     0.06  -0.01  -0.04
   3   1     0.00   0.00  -0.00     0.01   0.00   0.00    -0.26   0.05   0.13
   4   1    -0.01  -0.01   0.00     0.04   0.02  -0.00     0.00   0.00   0.00
   5   8     0.00  -0.00   0.00     0.03  -0.05   0.00    -0.00   0.00  -0.00
   6   1    -0.01   0.01   0.00    -0.17   0.16   0.02    -0.00  -0.00   0.00
   7   1     0.00   0.00  -0.00    -0.00   0.00   0.01    -0.64  -0.17   0.63
   8   8     0.00  -0.00   0.00    -0.00  -0.00  -0.00     0.15   0.04  -0.17
   9   1    -0.00   0.00  -0.00     0.01   0.00   0.00     0.05  -0.00   0.04
  10   1    -0.42  -0.13  -0.11     0.22   0.07   0.06    -0.01  -0.00  -0.00
  11   8     0.11   0.03   0.01    -0.06  -0.02  -0.01     0.00   0.00   0.00
  12   1    -0.03  -0.00   0.07     0.00  -0.00  -0.02    -0.00  -0.00   0.00
  13   1    -0.04   0.01  -0.00    -0.06   0.02   0.03     0.00  -0.00  -0.00
  14   8     0.01  -0.01   0.02     0.05  -0.08   0.19    -0.00   0.00   0.00
  15   1    -0.01   0.03  -0.08    -0.12   0.32  -0.84    -0.00  -0.00  -0.00
  16   1     0.41   0.48   0.54     0.02   0.02   0.02     0.00   0.01   0.00
  17   8    -0.11  -0.13  -0.12    -0.01  -0.01  -0.00     0.00   0.01  -0.01
  18   1     0.02   0.03  -0.06     0.00   0.00  -0.01    -0.02  -0.03   0.02
  19   1    -0.07   0.08  -0.03     0.04  -0.04   0.01     0.01  -0.01   0.00
  20   8     0.02  -0.02   0.01    -0.01   0.01  -0.00    -0.00   0.00  -0.00
  21   1     0.00  -0.00  -0.00     0.00   0.00  -0.00     0.00   0.00   0.00
  22   1    -0.10  -0.04   0.03     0.02   0.01  -0.01    -0.01  -0.00   0.00
  23   8     0.02   0.01  -0.01    -0.00  -0.00   0.00     0.00  -0.00   0.00
  24   1     0.01  -0.00   0.01    -0.00   0.00   0.00     0.00   0.00  -0.00
  25   7     0.00   0.00   0.00     0.00  -0.00  -0.00     0.01   0.00   0.02
  26   1    -0.00  -0.00   0.00     0.00   0.00  -0.00    -0.06   0.02  -0.07
  27   1     0.01  -0.01  -0.02    -0.00   0.00   0.01     0.01  -0.01  -0.03
  28   1    -0.00   0.00   0.00     0.00   0.00  -0.00     0.01  -0.02   0.00
                     67                     68                     69
                        a                      a                      a 
 Frequencies --  3528.2331              3124.6909              2884.8733
 Red. masses --    99.0000                99.0000                99.0000
 Frc consts  --    99.0000                99.0000                99.0000
 IR Inten    --    99.0000                99.0000                99.0000
 Raman Activ --     0.0000                 0.0000                 0.0000
 Depolar     --     0.0000                 0.0000                 0.0000
 Atom AN      X      Y      Z        X      Y      Z        X      Y      Z
   1   1     0.00   0.00   0.00     0.04   0.04   0.18     0.01  -0.00   0.00
   2   8     0.00  -0.00  -0.00    -0.01  -0.01  -0.05    -0.00   0.00  -0.00
   3   1    -0.00   0.00   0.00    -0.01  -0.00  -0.00     0.00  -0.00   0.00
   4   1    -0.00  -0.00   0.00    -0.04  -0.06   0.00     0.00  -0.00  -0.00
   5   8     0.00  -0.00   0.00     0.18  -0.14  -0.02    -0.00   0.00   0.00
   6   1    -0.00   0.00  -0.00    -0.69   0.61   0.08     0.00   0.00  -0.00
   7   1     0.00   0.00  -0.00     0.01   0.00  -0.01    -0.01   0.00   0.01
   8   8    -0.00   0.00  -0.01    -0.00  -0.00   0.00     0.00  -0.00  -0.00
   9   1     0.01  -0.00   0.02    -0.00  -0.00  -0.00     0.00   0.01   0.00
  10   1     0.00   0.00   0.00    -0.09  -0.03  -0.02    -0.03  -0.01  -0.01
  11   8     0.00  -0.00  -0.00     0.03   0.01   0.00     0.01   0.00   0.00
  12   1    -0.00  -0.00   0.00    -0.01   0.00   0.02     0.00   0.00   0.00
  13   1    -0.01   0.00  -0.00     0.02  -0.01  -0.01    -0.00   0.00  -0.01
  14   8     0.00  -0.00   0.00    -0.01   0.02  -0.04    -0.00   0.00  -0.00
  15   1     0.00  -0.00  -0.00     0.03  -0.07   0.17     0.01  -0.01   0.02
  16   1    -0.00  -0.00  -0.00    -0.02  -0.02  -0.02     0.06   0.07   0.07
  17   8     0.00   0.00   0.00     0.00   0.00   0.00    -0.02  -0.02  -0.02
  18   1    -0.00  -0.00   0.00     0.00  -0.00   0.00    -0.00  -0.00  -0.01
  19   1    -0.04   0.02  -0.03    -0.00   0.01  -0.00     0.00  -0.00   0.00
  20   8    -0.14  -0.08  -0.16     0.00  -0.00   0.00    -0.00   0.00  -0.00
  21   1     0.62   0.30   0.68    -0.00   0.00  -0.00    -0.00   0.00   0.00
  22   1     0.00   0.00  -0.00    -0.00  -0.00   0.00     0.89   0.33  -0.16
  23   8    -0.00   0.00  -0.00     0.00  -0.00   0.00    -0.22  -0.08   0.05
  24   1     0.00  -0.01   0.01     0.00   0.00  -0.00    -0.03  -0.01   0.00
  25   7    -0.00   0.00  -0.00    -0.00   0.00   0.00    -0.00   0.00   0.00
  26   1     0.00  -0.00   0.00     0.00  -0.00   0.00     0.02   0.01   0.00
  27   1    -0.00   0.00  -0.00     0.00  -0.00  -0.00     0.02   0.01  -0.02
  28   1     0.00  -0.00   0.00    -0.00  -0.00   0.00     0.01   0.01  -0.00
                     70                     71                     72
                        a                      a                      a 
 Frequencies --  3514.7296              3232.1807              3436.6572
 Red. masses --    99.0000                99.0000                99.0000
 Frc consts  --    99.0000                99.0000                99.0000
 IR Inten    --    99.0000                99.0000                99.0000
 Raman Activ --     0.0000                 0.0000                 0.0000
 Depolar     --     0.0000                 0.0000                 0.0000
 Atom AN      X      Y      Z        X      Y      Z        X      Y      Z
   1   1     0.00   0.00   0.00     0.18   0.19   0.88     0.00  -0.00  -0.02
   2   8    -0.00   0.00  -0.00    -0.02  -0.05  -0.22     0.03  -0.01  -0.01
   3   1     0.00  -0.00  -0.00    -0.08   0.01   0.00    -0.12   0.02   0.06
   4   1    -0.00  -0.00   0.00     0.16   0.10  -0.02     0.00   0.00  -0.00
   5   8     0.00   0.00  -0.00    -0.07  -0.01   0.01    -0.00   0.00   0.00
   6   1    -0.00   0.00   0.00     0.11  -0.09  -0.01     0.00  -0.00   0.00
   7   1    -0.00  -0.00   0.00     0.05   0.01  -0.05     0.01   0.00  -0.01
   8   8     0.00  -0.00   0.00    -0.01  -0.00   0.02    -0.00  -0.00   0.00
   9   1    -0.00   0.00  -0.01    -0.01   0.00  -0.01     0.00  -0.00   0.00
  10   1     0.05   0.02   0.01     0.02   0.01   0.01     0.00   0.00  -0.00
  11   8    -0.01  -0.00  -0.00    -0.01  -0.00  -0.00     0.00  -0.00  -0.00
  12   1    -0.00  -0.00   0.00     0.00   0.00  -0.00    -0.00  -0.00   0.01
  13   1    -0.90   0.34  -0.03    -0.01   0.00   0.00    -0.00   0.00  -0.00
  14   8     0.22  -0.08  -0.01     0.01  -0.01   0.02     0.00  -0.00   0.00
  15   1     0.04  -0.04   0.08    -0.02   0.04  -0.11    -0.00   0.00  -0.00
  16   1    -0.01  -0.01  -0.01     0.05   0.06   0.06     0.00   0.00   0.00
  17   8     0.00   0.00   0.00    -0.01  -0.02  -0.01    -0.00  -0.00   0.00
  18   1    -0.00  -0.00   0.01     0.00   0.01  -0.01     0.00   0.00  -0.00
  19   1     0.00  -0.00  -0.00     0.00  -0.00   0.00    -0.00   0.00  -0.00
  20   8     0.00   0.00   0.00    -0.00   0.00  -0.00     0.00  -0.00   0.00
  21   1    -0.00  -0.00  -0.00    -0.00  -0.00  -0.00    -0.00  -0.00  -0.00
  22   1    -0.00  -0.00   0.00    -0.01  -0.00   0.01    -0.00   0.00  -0.00
  23   8     0.00  -0.00   0.00     0.00  -0.00  -0.00     0.00  -0.00   0.00
  24   1    -0.00   0.01  -0.01     0.00   0.00  -0.00    -0.00   0.01  -0.01
  25   7     0.00   0.00   0.00    -0.00   0.00  -0.00    -0.13   0.23  -0.08
  26   1    -0.00   0.00  -0.00    -0.00  -0.00   0.00     0.31  -0.03   0.33
  27   1     0.00   0.00  -0.00     0.00  -0.00  -0.00     0.03  -0.01  -0.11
  28   1    -0.00  -0.00   0.00    -0.00   0.00   0.00     0.16  -0.81   0.06
                     73                     74                     75
                        a                      a                      a 
 Frequencies --  3364.1376              3328.5067              3408.8537
 Red. masses --    99.0000                99.0000                99.0000
 Frc consts  --    99.0000                99.0000                99.0000
 IR Inten    --    99.0000                99.0000                99.0000
 Raman Activ --     0.0000                 0.0000                 0.0000
 Depolar     --     0.0000                 0.0000                 0.0000
 Atom AN      X      Y      Z        X      Y      Z        X      Y      Z
   1   1     0.00   0.00   0.00    -0.03  -0.04  -0.16    -0.00  -0.00  -0.01
   2   8     0.00  -0.00  -0.00     0.00   0.01   0.04    -0.00   0.00   0.00
   3   1    -0.00   0.00   0.00     0.02  -0.00  -0.00     0.01  -0.00  -0.00
   4   1     0.00   0.00   0.00     0.81   0.48  -0.08    -0.00  -0.00  -0.00
   5   8    -0.00  -0.00  -0.00    -0.18  -0.13   0.02     0.00   0.00   0.00
   6   1    -0.00  -0.00   0.00    -0.10   0.05   0.01    -0.00   0.00  -0.00
   7   1     0.00   0.00  -0.00    -0.01  -0.00   0.01     0.07   0.02  -0.07
   8   8     0.00  -0.00   0.00     0.00   0.00  -0.00    -0.02  -0.00   0.02
   9   1    -0.01   0.00  -0.01     0.00  -0.00   0.00    -0.00  -0.00   0.00
  10   1    -0.06  -0.02  -0.01     0.01   0.00   0.00     0.02   0.01   0.00
  11   8     0.00   0.00   0.02     0.00  -0.00  -0.01    -0.00  -0.00  -0.00
  12   1     0.05   0.01  -0.07    -0.02  -0.00   0.03    -0.01  -0.00   0.01
  13   1    -0.00   0.00   0.00     0.01  -0.00  -0.00     0.00  -0.00  -0.00
  14   8     0.00  -0.00   0.00    -0.00   0.01  -0.02    -0.00   0.00  -0.00
  15   1    -0.00   0.00  -0.00     0.01  -0.04   0.09     0.00  -0.00   0.00
  16   1     0.00   0.00   0.00     0.01   0.00   0.01    -0.00  -0.00   0.00
  17   8    -0.00  -0.00  -0.00    -0.00  -0.00  -0.00    -0.00  -0.00   0.00
  18   1     0.00   0.00  -0.00    -0.00  -0.00   0.00     0.00   0.00  -0.00
  19   1     0.04  -0.05   0.02    -0.01   0.01  -0.00    -0.01   0.01  -0.00
  20   8    -0.01   0.01  -0.00     0.00  -0.00   0.00     0.00  -0.00   0.00
  21   1     0.00   0.00   0.00     0.00  -0.00   0.00    -0.00  -0.00  -0.00
  22   1     0.02   0.01  -0.01    -0.00  -0.00  -0.00     0.01   0.00   0.00
  23   8    -0.01  -0.00   0.00     0.00   0.00  -0.00    -0.00   0.00  -0.00
  24   1    -0.00   0.00  -0.00     0.00  -0.00   0.00     0.00  -0.00   0.00
  25   7     0.11  -0.02  -0.15     0.00  -0.00  -0.00     0.08   0.10   0.21
  26   1    -0.16   0.04  -0.22    -0.00   0.00  -0.00    -0.55   0.13  -0.57
  27   1    -0.33   0.29   0.77    -0.00   0.00   0.00     0.15  -0.10  -0.28
  28   1     0.08  -0.26   0.00     0.00  -0.00  -0.00     0.10  -0.39   0.06
                     76                     77                     78
                        a                      a                      a 
 Frequencies --  3429.3796              3546.0877              3530.1215
 Red. masses --    99.0000                99.0000                99.0000
 Frc consts  --    99.0000                99.0000                99.0000
 IR Inten    --    99.0000                99.0000                99.0000
 Raman Activ --     0.0000                 0.0000                 0.0000
 Depolar     --     0.0000                 0.0000                 0.0000
 Atom AN      X      Y      Z        X      Y      Z        X      Y      Z
   1   1    -0.00  -0.00   0.00    -0.00  -0.00  -0.01     0.00   0.00   0.01
   2   8    -0.00   0.00   0.00    -0.00   0.00   0.00    -0.00  -0.00  -0.00
   3   1     0.02  -0.00  -0.01     0.01  -0.00  -0.01     0.00  -0.00  -0.00
   4   1    -0.00   0.00  -0.00     0.00   0.00  -0.00    -0.00  -0.00   0.00
   5   8    -0.00   0.00  -0.00     0.00  -0.00   0.00     0.00   0.00  -0.00
   6   1     0.00  -0.00  -0.00    -0.00   0.00  -0.00    -0.00   0.00   0.00
   7   1    -0.04  -0.01   0.04    -0.04  -0.02   0.08    -0.00  -0.00   0.00
   8   8     0.01   0.00  -0.01     0.12  -0.02   0.20     0.00   0.00  -0.00
   9   1     0.00  -0.00   0.00    -0.43   0.11  -0.86     0.00  -0.00   0.01
  10   1     0.00   0.00   0.00     0.01   0.00   0.00     0.00   0.00   0.00
  11   8     0.00   0.00  -0.00    -0.00  -0.00  -0.00    -0.00   0.00  -0.00
  12   1    -0.00  -0.00   0.00    -0.00  -0.00  -0.00     0.00  -0.00   0.00
  13   1    -0.00  -0.00   0.00     0.01  -0.00   0.00    -0.01   0.00  -0.00
  14   8     0.00   0.00  -0.00    -0.00  -0.00   0.00     0.00  -0.00   0.00
  15   1     0.00  -0.00   0.01     0.00   0.00  -0.00    -0.00   0.00  -0.00
  16   1    -0.05  -0.07  -0.03    -0.00  -0.00  -0.00    -0.01  -0.00  -0.01
  17   8    -0.10  -0.15   0.14     0.00   0.00   0.00     0.00   0.00   0.00
  18   1     0.45   0.68  -0.52    -0.00  -0.00   0.00    -0.01  -0.01   0.01
  19   1     0.00  -0.00   0.00    -0.02   0.02  -0.01     0.00  -0.00   0.00
  20   8    -0.00   0.00  -0.00    -0.00  -0.01  -0.00     0.00   0.00   0.00
  21   1     0.00   0.00   0.00     0.02   0.01   0.02    -0.01  -0.00  -0.01
  22   1     0.00   0.00  -0.00    -0.00   0.00  -0.00     0.01   0.02  -0.02
  23   8    -0.00   0.00  -0.00    -0.00   0.00  -0.00    -0.01   0.14  -0.19
  24   1    -0.00  -0.01   0.01    -0.00  -0.01   0.01     0.02  -0.58   0.78
  25   7     0.00  -0.00   0.00    -0.00   0.00   0.00    -0.00   0.00  -0.00
  26   1    -0.00   0.00  -0.00    -0.00   0.00  -0.00     0.01  -0.00   0.01
  27   1     0.00   0.00   0.00     0.00  -0.00  -0.01    -0.00   0.00   0.00
  28   1    -0.00   0.00   0.00     0.00  -0.01   0.00     0.00  -0.01   0.00
