 Entering Gaussian System
 *********************************************
 Gaussian 98:
 frequency output generated by the xtb code
 *********************************************
                         Standard orientation:
 --------------------------------------------------------------------
  Center     Atomic     Atomic              Coordinates (Angstroms)
  Number     Number      Type              X           Y           Z
 --------------------------------------------------------------------
    1          1             0        9.756813   -3.339891    2.091566
    2          8             0        9.449341   -3.120876    1.181106
    3          1             0       10.230654   -2.929154    0.641712
    4          1             0        6.749290   -3.532352    0.262803
    5          8             0        7.309052   -4.303305    0.051713
    6          1             0        8.171159   -4.026676    0.448513
    7          1             0        7.654378   -4.030192   -1.655075
    8          8             0        7.813809   -4.039618   -2.629504
    9          1             0        7.014573   -3.602939   -2.987661
   10          1             0        4.352554   -7.704242   -1.060788
   11          8             0        4.750174   -6.991235   -0.530480
   12          1             0        5.280459   -6.518113   -1.208961
   13          1             0        6.949527   -5.599720   -2.777722
   14          8             0        6.201154   -6.234732   -2.772407
   15          1             0        6.565191   -7.158377   -2.760565
   16          1             0        6.501406   -5.416995    1.155332
   17          8             0        6.010953   -6.068816    1.707422
   18          1             0        5.471065   -6.532057    1.030792
   19          1             0        7.082702   -8.842747   -1.573293
   20          8             0        6.815989   -8.831631   -2.530498
   21          1             0        5.908539   -9.167364   -2.548879
   22          1             0        7.312268   -5.834411    3.219742
   23          8             0        7.722701   -5.446734    4.011174
   24          1             0        7.201639   -4.627220    4.153512
   25          7             0        7.792306   -8.586395    0.118683
   26          1             0        8.767551   -8.319714    0.018033
   27          1             0        7.773015   -9.394303    0.733935
   28          1             0        7.322035   -7.826456    0.607766
 --------------------------------------------------------------------
     1 basis functions        1 primitive gaussians
     1 alpha electrons        1 beta electrons
 
 Harmonic frequencies (cm**-1), IR intensities (KM/Mole),
 Raman scattering activities (A**4/amu), Raman depolarization ratios,
 reduced masses (AMU), force constants (mDyne/A) and normal coordinates:
                      1                      2                      3
                        a                      a                      a 
 Frequencies --   -40.1877               -17.1150                31.5412
 Red. masses --    14.0334                14.3571                13.8218
 Frc consts  --     0.0000                 0.0000                 0.0000
 IR Inten    --     0.1049                 0.2175                 0.1957
 Raman Activ --     0.0000                 0.0000                 0.0000
 Depolar     --     0.0000                 0.0000                 0.0000
 Atom AN      X      Y      Z        X      Y      Z        X      Y      Z
   1   1    -0.00  -0.01   0.01     0.07   0.11  -0.12    -0.06   0.15   0.04
   2   8    -0.00  -0.03   0.03     0.20   0.34  -0.45    -0.24   0.60   0.17
   3   1     0.00  -0.01   0.01     0.04   0.09  -0.13    -0.06   0.17   0.05
   4   1     0.01   0.02  -0.02     0.03  -0.01   0.01    -0.00   0.00   0.00
   5   8    -0.02   0.02  -0.00     0.12   0.00  -0.00     0.09   0.07   0.07
   6   1    -0.00  -0.00   0.00     0.04   0.02  -0.03     0.01   0.05   0.03
   7   1     0.01  -0.01   0.00    -0.00   0.00  -0.01     0.05  -0.03   0.02
   8   8     0.04  -0.05   0.00    -0.03   0.01  -0.03     0.22  -0.16   0.08
   9   1     0.01  -0.01  -0.00    -0.01   0.00  -0.00     0.06  -0.03   0.01
  10   1     0.08  -0.05   0.06     0.01   0.01   0.02    -0.01   0.01  -0.00
  11   8     0.30  -0.18   0.21     0.04   0.04   0.05    -0.02   0.06  -0.03
  12   1     0.05  -0.03   0.05     0.01   0.01   0.01     0.00   0.00  -0.01
  13   1     0.01  -0.01   0.01    -0.00   0.00  -0.00     0.03  -0.02   0.01
  14   8     0.03  -0.04   0.06    -0.01   0.00   0.02     0.07  -0.05   0.02
  15   1     0.00  -0.01  -0.02    -0.00   0.00   0.00     0.00  -0.02  -0.00
  16   1    -0.05   0.09   0.07     0.03   0.00   0.01     0.05  -0.03  -0.01
  17   8    -0.26   0.43   0.30     0.07   0.03   0.03     0.19  -0.13  -0.08
  18   1    -0.03   0.07   0.08     0.02   0.01   0.01     0.03  -0.02  -0.02
  19   1    -0.01  -0.05  -0.10    -0.00  -0.00   0.00    -0.07  -0.05  -0.02
  20   8    -0.04  -0.11  -0.38    -0.02  -0.00   0.00    -0.25  -0.14  -0.10
  21   1    -0.01  -0.02  -0.10    -0.00  -0.00   0.00    -0.07  -0.02  -0.03
  22   1    -0.02   0.05   0.04    -0.07  -0.07   0.07     0.05  -0.01  -0.01
  23   8    -0.04   0.16   0.14    -0.41  -0.41   0.40     0.18  -0.00  -0.05
  24   1    -0.00   0.04   0.04    -0.10  -0.10   0.11     0.04  -0.00  -0.02
  25   7    -0.01  -0.18  -0.35     0.01  -0.02  -0.01    -0.22  -0.26  -0.09
  26   1    -0.00  -0.05  -0.09     0.00  -0.01  -0.00    -0.06  -0.08  -0.03
  27   1    -0.01  -0.03  -0.07     0.00  -0.00  -0.00    -0.06  -0.08  -0.03
  28   1    -0.01  -0.03  -0.12     0.01  -0.00  -0.00    -0.04  -0.07  -0.01
                      4                      5                      6
                        a                      a                      a 
 Frequencies --    38.9968                45.4711                50.2368
 Red. masses --    14.2969                14.0117                13.4112
 Frc consts  --     0.0000                 0.0000                 0.0000
 IR Inten    --     0.1285                 0.1666                 0.3058
 Raman Activ --     0.0000                 0.0000                 0.0000
 Depolar     --     0.0000                 0.0000                 0.0000
 Atom AN      X      Y      Z        X      Y      Z        X      Y      Z
   1   1    -0.12  -0.04  -0.00     0.03   0.01   0.04     0.01  -0.05   0.04
   2   8    -0.43  -0.15  -0.01     0.12   0.02   0.15     0.09  -0.16   0.14
   3   1    -0.10  -0.02   0.01     0.03   0.02   0.05     0.03  -0.05   0.04
   4   1    -0.06  -0.09  -0.11     0.07  -0.06   0.02    -0.00   0.06  -0.00
   5   8    -0.15  -0.29  -0.37     0.30  -0.21   0.05    -0.03   0.26  -0.10
   6   1    -0.06  -0.05  -0.07     0.07  -0.05   0.01    -0.00   0.05  -0.03
   7   1     0.05   0.00  -0.07     0.02  -0.04   0.00    -0.07   0.08  -0.04
   8   8     0.27   0.04  -0.28     0.01  -0.16   0.00    -0.32   0.26  -0.16
   9   1     0.08   0.01  -0.08     0.00  -0.02   0.02    -0.09   0.04  -0.04
  10   1     0.03   0.05   0.03    -0.05  -0.02   0.02     0.04  -0.01   0.01
  11   8     0.08   0.20   0.15    -0.22  -0.03   0.06     0.12   0.00   0.01
  12   1     0.02   0.06   0.05    -0.06  -0.01   0.01     0.02   0.00  -0.00
  13   1     0.02   0.02  -0.01    -0.06  -0.00   0.01     0.01   0.01  -0.00
  14   8     0.03   0.15   0.04    -0.26   0.01   0.06     0.07  -0.00   0.02
  15   1    -0.01   0.03   0.01    -0.06   0.00  -0.00     0.03   0.00   0.00
  16   1     0.05  -0.02   0.03     0.06  -0.07  -0.02     0.08   0.00  -0.04
  17   8     0.22  -0.07   0.16     0.20  -0.25  -0.08     0.39  -0.04  -0.14
  18   1     0.04  -0.01   0.05     0.03  -0.04  -0.01     0.08  -0.00  -0.03
  19   1    -0.01   0.02   0.01     0.01   0.02  -0.04    -0.01  -0.04  -0.00
  20   8    -0.07   0.12   0.03    -0.04   0.05  -0.16     0.04  -0.03  -0.03
  21   1    -0.02   0.03   0.01    -0.00  -0.00  -0.02     0.01   0.00  -0.03
  22   1     0.02  -0.01   0.07    -0.06   0.09   0.04    -0.02   0.05   0.02
  23   8     0.03  -0.03   0.29    -0.30   0.44   0.16    -0.18   0.19   0.16
  24   1     0.00  -0.01   0.07    -0.09   0.11   0.02    -0.05   0.05   0.03
  25   7     0.03   0.04   0.00     0.19   0.12  -0.24    -0.16  -0.45   0.10
  26   1     0.01   0.00  -0.01     0.04   0.05  -0.09    -0.03  -0.16   0.06
  27   1     0.01   0.01  -0.00     0.08   0.03  -0.07    -0.09  -0.13   0.01
  28   1     0.02   0.01   0.01     0.05   0.02  -0.04    -0.02  -0.11   0.04
                      7                      8                      9
                        a                      a                      a 
 Frequencies --    51.4222                60.4863                67.3719
 Red. masses --    14.0930                14.4874                13.8949
 Frc consts  --     0.0000                 0.0000                 0.0000
 IR Inten    --     0.1094                 0.2706                 0.2877
 Raman Activ --     0.0000                 0.0000                 0.0000
 Depolar     --     0.0000                 0.0000                 0.0000
 Atom AN      X      Y      Z        X      Y      Z        X      Y      Z
   1   1    -0.02  -0.01   0.12     0.00   0.00   0.03    -0.00  -0.03  -0.02
   2   8    -0.03   0.00   0.45    -0.01  -0.00   0.13    -0.03  -0.09  -0.05
   3   1     0.00   0.01   0.13    -0.00   0.01   0.03    -0.01  -0.04  -0.02
   4   1     0.04   0.08  -0.06     0.01  -0.02   0.03    -0.06   0.05   0.01
   5   8     0.13   0.29  -0.19     0.03  -0.08   0.12    -0.22   0.19   0.06
   6   1     0.02   0.06  -0.01     0.01  -0.01   0.02    -0.05   0.05   0.01
   7   1     0.01  -0.02  -0.06    -0.06  -0.04   0.02    -0.03  -0.01   0.02
   8   8    -0.05  -0.21  -0.27    -0.26  -0.08   0.06    -0.06  -0.11   0.09
   9   1    -0.01  -0.05  -0.07    -0.07  -0.02   0.03    -0.02  -0.04   0.01
  10   1    -0.01  -0.03   0.04     0.07   0.05  -0.04    -0.12   0.16  -0.00
  11   8    -0.03  -0.06   0.10     0.32   0.23  -0.21    -0.33   0.58  -0.02
  12   1    -0.03  -0.02   0.00     0.07   0.04  -0.07    -0.02   0.08  -0.00
  13   1    -0.05  -0.03  -0.01    -0.00  -0.04  -0.12     0.03  -0.04   0.03
  14   8    -0.19  -0.13   0.01    -0.01  -0.15  -0.60     0.13  -0.20   0.10
  15   1    -0.05  -0.03   0.00    -0.01  -0.04  -0.11     0.03  -0.05   0.02
  16   1     0.02   0.08  -0.04     0.01  -0.01   0.05    -0.01   0.02   0.02
  17   8     0.13   0.32  -0.15     0.01  -0.04   0.13     0.01   0.02   0.05
  18   1     0.03   0.07  -0.03     0.01   0.00   0.01    -0.01   0.03   0.01
  19   1     0.00   0.00   0.01    -0.04   0.00   0.02     0.05  -0.07  -0.04
  20   8    -0.03  -0.08   0.06    -0.18  -0.12   0.07     0.13  -0.23  -0.12
  21   1    -0.00  -0.03   0.03    -0.05  -0.03   0.04     0.03  -0.04  -0.02
  22   1     0.00  -0.05  -0.03     0.03   0.01   0.07     0.01  -0.00   0.02
  23   8    -0.06  -0.37   0.01     0.10   0.07   0.30     0.03  -0.02   0.07
  24   1    -0.01  -0.09   0.02     0.02   0.02   0.07     0.01  -0.01   0.02
  25   7     0.12   0.22  -0.03    -0.01   0.17   0.00     0.32  -0.13  -0.16
  26   1     0.03   0.07  -0.03    -0.01   0.06  -0.02     0.08  -0.04  -0.07
  27   1     0.05   0.07   0.01     0.02   0.05   0.01     0.10  -0.03  -0.03
  28   1     0.03   0.06  -0.02    -0.01   0.04   0.00     0.09  -0.03  -0.05
                     10                     11                     12
                        a                      a                      a 
 Frequencies --    69.6189                76.0191                81.9350
 Red. masses --    14.0815                12.7307                13.9784
 Frc consts  --     0.0000                 0.0000                 0.0000
 IR Inten    --     0.2367                 0.2871                 0.1954
 Raman Activ --     0.0000                 0.0000                 0.0000
 Depolar     --     0.0000                 0.0000                 0.0000
 Atom AN      X      Y      Z        X      Y      Z        X      Y      Z
   1   1    -0.01   0.06   0.04    -0.00   0.00   0.01     0.00  -0.00  -0.02
   2   8    -0.03   0.19   0.15    -0.02   0.02   0.04    -0.01  -0.01  -0.07
   3   1    -0.01   0.09   0.05    -0.01   0.01   0.01    -0.00  -0.02  -0.03
   4   1     0.10  -0.10  -0.02     0.01  -0.00  -0.00    -0.04   0.05  -0.01
   5   8     0.38  -0.41  -0.09     0.02  -0.01  -0.00    -0.16   0.18   0.04
   6   1     0.09  -0.10  -0.02     0.00  -0.01   0.01    -0.04   0.05   0.01
   7   1    -0.03   0.01  -0.04     0.02   0.02   0.00     0.03  -0.08   0.02
   8   8    -0.26   0.12  -0.20     0.07   0.10   0.02     0.20  -0.36   0.10
   9   1    -0.08   0.03  -0.02     0.02   0.03   0.01     0.08  -0.04   0.01
  10   1    -0.05   0.06  -0.00     0.02  -0.00  -0.03     0.01  -0.02   0.02
  11   8    -0.16   0.22  -0.01     0.08  -0.05  -0.06    -0.01  -0.01   0.01
  12   1    -0.02   0.03  -0.00     0.01   0.01  -0.01    -0.05   0.02  -0.02
  13   1    -0.03   0.01  -0.02     0.00   0.03  -0.02    -0.11   0.02  -0.06
  14   8    -0.08  -0.01  -0.02    -0.02   0.15  -0.12    -0.46   0.12  -0.31
  15   1    -0.00   0.01   0.00    -0.02   0.03  -0.01    -0.10   0.03  -0.06
  16   1    -0.02  -0.00   0.02    -0.02   0.01  -0.00    -0.00   0.02   0.01
  17   8    -0.27   0.16   0.09    -0.11   0.09   0.01     0.02   0.04   0.02
  18   1    -0.06   0.04   0.02     0.00  -0.01  -0.00     0.01   0.01   0.00
  19   1     0.06  -0.00   0.00    -0.05  -0.01   0.05     0.07   0.07  -0.01
  20   8     0.29   0.07  -0.01    -0.44   0.07   0.28     0.31   0.32  -0.03
  21   1     0.08   0.01  -0.02    -0.12   0.04   0.11     0.10   0.03  -0.02
  22   1     0.01  -0.01  -0.01    -0.05   0.00  -0.04     0.02   0.01   0.02
  23   8     0.11  -0.07  -0.06    -0.16  -0.00  -0.18     0.08   0.02   0.10
  24   1     0.03  -0.01  -0.01    -0.04  -0.00  -0.04     0.02   0.00   0.03
  25   7     0.00  -0.26   0.13     0.54  -0.35   0.03     0.03  -0.28   0.13
  26   1     0.01  -0.09   0.07     0.14  -0.10  -0.05     0.02  -0.11   0.08
  27   1    -0.03  -0.07   0.03     0.18  -0.09   0.01    -0.05  -0.10   0.01
  28   1    -0.01  -0.07   0.02     0.18  -0.09   0.03     0.02  -0.07   0.04
                     13                     14                     15
                        a                      a                      a 
 Frequencies --   103.3077               173.5022               185.5347
 Red. masses --    14.3696                14.1504                 2.3966
 Frc consts  --     0.0000                 0.0000                 0.0000
 IR Inten    --     0.1524                 0.2313                 0.0438
 Raman Activ --     0.0000                 0.0000                 0.0000
 Depolar     --     0.0000                 0.0000                 0.0000
 Atom AN      X      Y      Z        X      Y      Z        X      Y      Z
   1   1     0.02   0.01   0.00     0.00   0.00   0.00     0.02   0.00   0.01
   2   8     0.05   0.01   0.02     0.00   0.00   0.00     0.09   0.01   0.03
   3   1     0.01   0.01   0.00    -0.00  -0.00  -0.00     0.02   0.02   0.01
   4   1     0.00   0.03  -0.02     0.01   0.00   0.01    -0.02   0.00   0.00
   5   8    -0.01   0.10  -0.08     0.00  -0.01   0.05    -0.04   0.05  -0.03
   6   1    -0.00   0.02  -0.01     0.00  -0.00   0.01    -0.01   0.02  -0.00
   7   1     0.01   0.03  -0.02     0.02   0.04   0.01     0.01   0.01  -0.02
   8   8     0.07   0.11  -0.10     0.16   0.28   0.04     0.03  -0.02  -0.09
   9   1     0.01   0.02  -0.03     0.04   0.07   0.01     0.01  -0.00  -0.03
  10   1    -0.08  -0.06  -0.09    -0.08  -0.05   0.07     0.03   0.01   0.01
  11   8    -0.33  -0.31  -0.26    -0.40  -0.17   0.28     0.06   0.05   0.04
  12   1    -0.06  -0.06  -0.04    -0.10  -0.03   0.09     0.02   0.02   0.01
  13   1     0.02   0.01   0.01     0.02  -0.00  -0.10    -0.01   0.01   0.00
  14   8     0.09   0.03   0.03     0.08  -0.00  -0.46    -0.03   0.03   0.02
  15   1     0.02   0.01   0.01     0.02   0.00  -0.09    -0.00   0.01  -0.00
  16   1    -0.05   0.00  -0.04     0.03   0.02   0.02    -0.01  -0.02   0.01
  17   8    -0.25   0.03  -0.20     0.17   0.10   0.17    -0.08  -0.07   0.03
  18   1    -0.06   0.01  -0.05     0.03   0.01   0.07    -0.03   0.00  -0.00
  19   1    -0.01  -0.01   0.00    -0.03  -0.06  -0.07    -0.03  -0.03  -0.03
  20   8    -0.08  -0.02   0.03    -0.03  -0.23  -0.28    -0.01  -0.03  -0.13
  21   1    -0.03   0.01   0.02    -0.01  -0.04  -0.09     0.00  -0.01  -0.07
  22   1     0.13   0.04   0.11    -0.02  -0.00  -0.02     0.00  -0.00  -0.00
  23   8     0.35   0.08   0.56    -0.04  -0.03  -0.08    -0.00   0.01  -0.01
  24   1     0.08   0.01   0.14    -0.01  -0.00  -0.02    -0.01  -0.00   0.00
  25   7     0.09  -0.04  -0.01     0.06   0.06   0.27    -0.03  -0.06   0.17
  26   1     0.02   0.00  -0.00     0.02  -0.02   0.05    -0.17   0.51  -0.09
  27   1     0.04  -0.01  -0.00     0.01   0.03   0.09     0.53  -0.14  -0.10
  28   1     0.01  -0.02  -0.00     0.06   0.04   0.07    -0.30  -0.34   0.28
                     16                     17                     18
                        a                      a                      a 
 Frequencies --   188.2870               193.1132               241.2837
 Red. masses --    12.6143                13.3892                13.6185
 Frc consts  --     0.0000                 0.0000                 0.0000
 IR Inten    --     0.1761                 0.1140                 0.0844
 Raman Activ --     0.0000                 0.0000                 0.0000
 Depolar     --     0.0000                 0.0000                 0.0000
 Atom AN      X      Y      Z        X      Y      Z        X      Y      Z
   1   1    -0.02  -0.01  -0.01     0.08   0.05   0.05    -0.00  -0.00   0.00
   2   8    -0.07  -0.03  -0.04     0.34   0.16   0.17     0.01   0.01   0.00
   3   1    -0.01  -0.02  -0.01     0.09   0.05   0.05     0.01  -0.00   0.01
   4   1     0.01  -0.01  -0.01    -0.05   0.04   0.02    -0.00  -0.00   0.01
   5   8     0.06  -0.03  -0.05    -0.22   0.14   0.06    -0.03  -0.02   0.06
   6   1     0.01  -0.01  -0.01    -0.05   0.03   0.01    -0.00   0.00   0.00
   7   1    -0.01  -0.03   0.03     0.02   0.05  -0.13    -0.06  -0.08  -0.02
   8   8    -0.11  -0.15   0.10     0.09  -0.01  -0.49    -0.27  -0.42  -0.11
   9   1    -0.02  -0.01   0.03     0.03  -0.02  -0.15    -0.08  -0.13  -0.03
  10   1     0.05   0.01  -0.04     0.03   0.02   0.01    -0.11   0.03  -0.06
  11   8     0.19   0.07  -0.17     0.07   0.05   0.07    -0.20  -0.16  -0.07
  12   1     0.05   0.02  -0.05     0.02   0.03   0.03     0.02  -0.06   0.02
  13   1    -0.03   0.04   0.06     0.01  -0.01  -0.02     0.13   0.00  -0.03
  14   8    -0.09   0.11   0.26    -0.01   0.02   0.01     0.47   0.06  -0.02
  15   1    -0.01   0.03   0.01    -0.01   0.00  -0.00     0.10   0.01  -0.02
  16   1    -0.00   0.00  -0.03    -0.10  -0.06   0.08     0.03   0.02   0.04
  17   8    -0.03   0.01  -0.13    -0.26  -0.42   0.25     0.15   0.09   0.23
  18   1     0.01  -0.00  -0.04    -0.05  -0.11   0.05     0.03   0.01   0.07
  19   1    -0.07  -0.06  -0.13    -0.01  -0.00  -0.02    -0.04   0.09  -0.02
  20   8    -0.18  -0.07  -0.50    -0.03  -0.00  -0.09    -0.10   0.42  -0.08
  21   1    -0.05   0.00  -0.16    -0.01  -0.01  -0.02    -0.06   0.20  -0.03
  22   1     0.02   0.00   0.01    -0.02  -0.03   0.02    -0.02  -0.00  -0.00
  23   8     0.03   0.01   0.05    -0.01   0.02  -0.04    -0.03  -0.01  -0.04
  24   1     0.00  -0.00   0.01     0.00   0.01  -0.03     0.00   0.00  -0.01
  25   7     0.19   0.08   0.50     0.04   0.04   0.07     0.01   0.02   0.04
  26   1     0.08  -0.06   0.18     0.05  -0.12   0.05     0.00   0.00   0.02
  27   1    -0.04   0.07   0.20    -0.12   0.04   0.06     0.01  -0.04  -0.05
  28   1     0.09   0.09   0.06     0.08   0.09  -0.03     0.02  -0.03   0.08
                     19                     20                     21
                        a                      a                      a 
 Frequencies --   268.6440               289.4103               291.5247
 Red. masses --    13.9547                 5.2012                11.0490
 Frc consts  --     0.0000                 0.0000                 0.0000
 IR Inten    --     0.2436                 0.1197                 0.2495
 Raman Activ --     0.0000                 0.0000                 0.0000
 Depolar     --     0.0000                 0.0000                 0.0000
 Atom AN      X      Y      Z        X      Y      Z        X      Y      Z
   1   1    -0.00   0.00  -0.00    -0.04  -0.02  -0.02    -0.09  -0.06  -0.05
   2   8     0.00   0.01  -0.00    -0.17  -0.06  -0.08    -0.34  -0.15  -0.17
   3   1     0.00  -0.02  -0.00    -0.04  -0.08  -0.04    -0.09  -0.11  -0.07
   4   1    -0.03  -0.03   0.05     0.05   0.02   0.10     0.11   0.06   0.15
   5   8    -0.08  -0.08   0.23     0.10   0.04   0.30     0.29   0.18   0.49
   6   1    -0.02  -0.00   0.04     0.04  -0.01   0.06     0.09   0.02   0.11
   7   1     0.02   0.06  -0.05     0.02   0.05  -0.05     0.03   0.06  -0.08
   8   8     0.11   0.12  -0.17     0.07   0.06  -0.18     0.02  -0.03  -0.32
   9   1     0.03   0.02  -0.06     0.01  -0.01  -0.06    -0.00  -0.03  -0.09
  10   1    -0.05   0.02  -0.19    -0.06   0.06   0.01     0.05  -0.03   0.03
  11   8    -0.07  -0.11  -0.57     0.06   0.02   0.11     0.02   0.03   0.06
  12   1    -0.01  -0.00  -0.12     0.05  -0.02   0.04    -0.02   0.02   0.01
  13   1    -0.06  -0.01   0.05     0.00  -0.04   0.00     0.01   0.00  -0.01
  14   8    -0.24  -0.03   0.17    -0.01  -0.13  -0.01     0.03   0.04  -0.02
  15   1    -0.06  -0.01   0.04    -0.02  -0.04  -0.03     0.00   0.01   0.01
  16   1     0.09   0.05   0.10     0.02  -0.01  -0.03    -0.02   0.01  -0.00
  17   8     0.30   0.20   0.40    -0.05   0.01  -0.13    -0.06  -0.06  -0.07
  18   1     0.08   0.06   0.09    -0.02   0.03  -0.04    -0.01  -0.01  -0.03
  19   1     0.02  -0.02   0.00     0.09   0.10  -0.05    -0.05  -0.05   0.02
  20   8     0.03  -0.13   0.01    -0.09   0.01  -0.07     0.03   0.05   0.01
  21   1     0.02  -0.06   0.02    -0.03   0.02   0.13     0.02  -0.00  -0.07
  22   1    -0.04  -0.02   0.00     0.01   0.01  -0.01     0.01  -0.00   0.00
  23   8    -0.03  -0.01  -0.06    -0.00  -0.00   0.02     0.01  -0.00   0.02
  24   1    -0.00   0.00  -0.02     0.01   0.01   0.00    -0.01  -0.01   0.01
  25   7    -0.01   0.01   0.00     0.15   0.13  -0.05    -0.05  -0.09   0.04
  26   1    -0.01   0.04   0.04     0.09   0.04   0.51    -0.05  -0.00  -0.26
  27   1     0.01   0.00  -0.00    -0.25  -0.25  -0.40     0.15   0.15   0.24
  28   1    -0.05  -0.02  -0.02    -0.12  -0.16   0.14     0.05   0.09  -0.10
                     22                     23                     24
                        a                      a                      a 
 Frequencies --   308.5806               320.9428               341.2346
 Red. masses --    13.4202                12.9381                 2.1310
 Frc consts  --     0.0000                 0.0000                 0.0000
 IR Inten    --     0.3438                 0.2457                 0.3111
 Raman Activ --     0.0000                 0.0000                 0.0000
 Depolar     --     0.0000                 0.0000                 0.0000
 Atom AN      X      Y      Z        X      Y      Z        X      Y      Z
   1   1    -0.07  -0.05  -0.02     0.00   0.01   0.01     0.01  -0.01  -0.01
   2   8    -0.19  -0.08  -0.09     0.03   0.01   0.01    -0.00  -0.00  -0.00
   3   1    -0.04  -0.05  -0.02     0.01   0.01   0.01    -0.01   0.02  -0.01
   4   1     0.15   0.14  -0.10    -0.03  -0.03   0.04    -0.01  -0.01   0.03
   5   8     0.42   0.40  -0.33    -0.08  -0.08   0.11    -0.04  -0.05   0.07
   6   1     0.11   0.06  -0.07    -0.02  -0.02   0.02    -0.01  -0.02   0.02
   7   1     0.01  -0.04   0.04    -0.03  -0.04  -0.02     0.01   0.00  -0.01
   8   8    -0.05  -0.03   0.13    -0.14  -0.24  -0.09     0.01  -0.00  -0.04
   9   1    -0.01   0.02   0.07    -0.02  -0.03  -0.03    -0.00  -0.00  -0.01
  10   1    -0.02   0.02  -0.06     0.17  -0.09  -0.02     0.10  -0.04  -0.02
  11   8    -0.05  -0.05  -0.12    -0.06  -0.00   0.03     0.02   0.02  -0.03
  12   1    -0.00   0.01  -0.01    -0.08   0.12   0.05     0.01   0.03   0.02
  13   1    -0.01   0.04   0.00     0.06   0.13  -0.04    -0.01   0.00   0.02
  14   8    -0.01   0.13  -0.00     0.09   0.68  -0.04    -0.03   0.01   0.04
  15   1     0.01   0.04  -0.00    -0.02   0.16   0.01    -0.00   0.01   0.01
  16   1    -0.07  -0.02   0.12     0.02   0.00  -0.02    -0.02   0.02  -0.02
  17   8    -0.11  -0.27   0.40     0.03   0.07  -0.08    -0.03   0.07  -0.05
  18   1    -0.01  -0.07   0.08    -0.00   0.02  -0.01     0.05  -0.04  -0.02
  19   1     0.01   0.01   0.01     0.06  -0.06   0.01    -0.15   0.09   0.05
  20   8     0.03  -0.14   0.04     0.08  -0.42   0.10     0.07  -0.09   0.00
  21   1     0.01  -0.03   0.03     0.05  -0.19   0.07     0.03  -0.06  -0.12
  22   1    -0.03  -0.04   0.03     0.01   0.01  -0.01    -0.03   0.04  -0.00
  23   8    -0.02   0.01  -0.03     0.01  -0.00   0.00     0.02  -0.01   0.01
  24   1    -0.00   0.01  -0.03    -0.01  -0.01   0.01     0.02   0.00   0.05
  25   7    -0.02   0.06  -0.03     0.02   0.01  -0.08    -0.13   0.16   0.05
  26   1     0.01  -0.02   0.05     0.01   0.03   0.11     0.01  -0.25  -0.37
  27   1    -0.06  -0.07  -0.12    -0.06  -0.03  -0.06    -0.01  -0.21  -0.32
  28   1     0.02  -0.03   0.08    -0.07  -0.03  -0.05     0.45  -0.00   0.55
                     25                     26                     27
                        a                      a                      a 
 Frequencies --   379.4830               386.2984               444.6630
 Red. masses --     2.1199                 2.9094                 1.6491
 Frc consts  --     0.0000                 0.0000                 0.0000
 IR Inten    --     0.3961                 0.5076                 0.5516
 Raman Activ --     0.0000                 0.0000                 0.0000
 Depolar     --     0.0000                 0.0000                 0.0000
 Atom AN      X      Y      Z        X      Y      Z        X      Y      Z
   1   1     0.08  -0.05  -0.04     0.02  -0.02  -0.01    -0.06   0.06   0.03
   2   8    -0.02  -0.23  -0.06    -0.01  -0.03  -0.01     0.02  -0.00  -0.02
   3   1    -0.12   0.85   0.14    -0.03   0.17   0.03     0.04  -0.07   0.03
   4   1     0.17   0.11   0.14     0.04   0.02   0.06     0.01   0.01  -0.05
   5   8    -0.05   0.05   0.02    -0.04   0.00   0.02     0.02  -0.01  -0.01
   6   1     0.09  -0.19  -0.09     0.02  -0.06  -0.01    -0.00   0.01   0.00
   7   1    -0.03   0.02  -0.00    -0.00  -0.01  -0.00    -0.00   0.02   0.00
   8   8     0.03  -0.00   0.01     0.00  -0.04  -0.02     0.01   0.03   0.03
   9   1     0.00  -0.04  -0.03     0.03   0.05  -0.00    -0.07  -0.13  -0.01
  10   1     0.13  -0.09   0.02    -0.60   0.48  -0.19    -0.03   0.14  -0.18
  11   8    -0.03   0.03  -0.02     0.15  -0.11   0.08    -0.01  -0.03   0.03
  12   1    -0.06   0.05  -0.01     0.30  -0.18   0.12     0.10   0.05   0.14
  13   1     0.01  -0.02   0.02    -0.03   0.06  -0.04     0.10  -0.11  -0.01
  14   8     0.01  -0.05   0.00    -0.07   0.17  -0.02     0.03  -0.01   0.00
  15   1    -0.00  -0.01   0.01     0.00   0.05  -0.04    -0.14  -0.06  -0.02
  16   1    -0.04   0.04   0.01    -0.03  -0.01  -0.06    -0.07   0.03  -0.03
  17   8     0.02   0.00   0.02     0.00   0.01  -0.07     0.01   0.01   0.03
  18   1     0.01  -0.01   0.00    -0.01  -0.04   0.03    -0.01  -0.04   0.05
  19   1     0.01   0.01  -0.00     0.02  -0.04   0.00    -0.06   0.11   0.01
  20   8    -0.03   0.04  -0.01     0.09  -0.17   0.02    -0.09   0.16   0.00
  21   1     0.01  -0.03  -0.00    -0.04   0.13   0.06     0.20  -0.55  -0.09
  22   1     0.06  -0.00  -0.03     0.01   0.02  -0.01     0.41  -0.02  -0.19
  23   8    -0.00   0.02  -0.00    -0.02   0.01   0.01     0.00   0.06   0.01
  24   1    -0.05  -0.03  -0.01     0.00   0.01   0.01    -0.38  -0.22  -0.02
  25   7     0.01  -0.00   0.01    -0.04  -0.00   0.01     0.00  -0.02   0.01
  26   1     0.01   0.00   0.04    -0.02  -0.02  -0.09     0.00  -0.00   0.01
  27   1    -0.02  -0.00  -0.00     0.03   0.02   0.03    -0.01   0.00   0.01
  28   1    -0.02  -0.00  -0.01     0.04   0.02   0.01    -0.01   0.00  -0.02
                     28                     29                     30
                        a                      a                      a 
 Frequencies --   450.1741               466.8220               475.2368
 Red. masses --     1.5648                 1.8028                 1.5794
 Frc consts  --     0.0000                 0.0000                 0.0000
 IR Inten    --     0.2387                 0.1826                 0.3621
 Raman Activ --     0.0000                 0.0000                 0.0000
 Depolar     --     0.0000                 0.0000                 0.0000
 Atom AN      X      Y      Z        X      Y      Z        X      Y      Z
   1   1    -0.07   0.01   0.02    -0.39   0.10   0.13    -0.33  -0.24   0.03
   2   8     0.02  -0.01  -0.03     0.03   0.09  -0.10     0.02  -0.01  -0.13
   3   1     0.05  -0.03   0.05     0.28  -0.22   0.29     0.22   0.15   0.33
   4   1    -0.04  -0.03  -0.02     0.31   0.18   0.26    -0.31  -0.30   0.21
   5   8     0.01  -0.02   0.03    -0.14  -0.02  -0.04     0.10   0.04  -0.01
   6   1    -0.01   0.05   0.01     0.17  -0.33  -0.24    -0.00   0.38  -0.19
   7   1     0.02  -0.04  -0.00    -0.19   0.09  -0.01    -0.03   0.08  -0.00
   8   8    -0.00  -0.02  -0.03     0.01  -0.02   0.08     0.00  -0.02   0.02
   9   1     0.05   0.12   0.03     0.11   0.02  -0.18     0.03  -0.02  -0.06
  10   1     0.02  -0.11   0.15     0.08   0.02  -0.10    -0.09  -0.02   0.11
  11   8     0.01   0.04  -0.03    -0.01  -0.02   0.01     0.01   0.01   0.01
  12   1    -0.07  -0.06  -0.11    -0.01   0.11   0.08     0.01  -0.12  -0.09
  13   1    -0.09   0.10  -0.00    -0.01  -0.00   0.04    -0.00   0.01   0.09
  14   8    -0.04   0.01   0.00    -0.02  -0.03  -0.01     0.01   0.02  -0.03
  15   1     0.12   0.05   0.01     0.01  -0.00   0.03     0.01   0.01  -0.02
  16   1    -0.03   0.04   0.03    -0.09   0.05  -0.03     0.24  -0.17   0.02
  17   8    -0.01   0.00   0.05     0.04  -0.00  -0.02    -0.07   0.01   0.02
  18   1     0.01   0.01  -0.01     0.01  -0.04   0.02    -0.07   0.11  -0.03
  19   1     0.05  -0.09  -0.01    -0.03  -0.03   0.01    -0.04   0.02   0.02
  20   8     0.06  -0.13   0.00     0.02  -0.01   0.01    -0.02   0.01   0.02
  21   1    -0.18   0.48   0.08    -0.03   0.09  -0.04     0.04  -0.11  -0.05
  22   1     0.47  -0.02  -0.21    -0.06   0.04   0.01    -0.06  -0.08   0.07
  23   8     0.01   0.07   0.01     0.03  -0.01  -0.01     0.03   0.01  -0.01
  24   1    -0.45  -0.27   0.00     0.02  -0.01   0.09    -0.02  -0.01  -0.01
  25   7    -0.02   0.02  -0.00     0.02   0.00  -0.02     0.01   0.01  -0.00
  26   1    -0.00  -0.02  -0.03     0.00   0.01  -0.00     0.01  -0.02  -0.00
  27   1    -0.01  -0.02  -0.03     0.01   0.00  -0.00    -0.01  -0.00  -0.01
  28   1     0.03   0.00   0.04    -0.01  -0.01  -0.01     0.02   0.01   0.01
                     31                     32                     33
                        a                      a                      a 
 Frequencies --   491.3397               499.8088               507.8166
 Red. masses --     1.5691                 1.5707                 1.8834
 Frc consts  --     0.0000                 0.0000                 0.0000
 IR Inten    --     0.3734                 0.2768                 0.1588
 Raman Activ --     0.0000                 0.0000                 0.0000
 Depolar     --     0.0000                 0.0000                 0.0000
 Atom AN      X      Y      Z        X      Y      Z        X      Y      Z
   1   1    -0.07  -0.13  -0.01    -0.11   0.01   0.03    -0.22  -0.02   0.05
   2   8     0.01  -0.00  -0.04     0.01  -0.01  -0.05     0.03  -0.01  -0.10
   3   1     0.05   0.09   0.09     0.08   0.02   0.10     0.15   0.07   0.21
   4   1    -0.14  -0.09  -0.07     0.03   0.06  -0.14     0.07   0.15  -0.34
   5   8     0.06   0.03   0.03    -0.03  -0.02   0.07    -0.05  -0.04   0.12
   6   1    -0.05   0.18   0.03    -0.02  -0.01   0.04    -0.05  -0.04   0.14
   7   1     0.09  -0.16   0.01     0.05  -0.17   0.00     0.19  -0.26   0.01
   8   8    -0.01   0.01  -0.04    -0.02   0.01  -0.04    -0.03   0.01  -0.11
   9   1    -0.00   0.14   0.15     0.02   0.16   0.12    -0.02   0.21   0.26
  10   1     0.30   0.12  -0.42     0.08   0.05  -0.13    -0.15  -0.05   0.19
  11   8    -0.07  -0.07   0.03    -0.02  -0.03   0.03     0.02   0.04  -0.02
  12   1     0.08   0.34   0.35     0.04   0.09   0.12    -0.01  -0.18  -0.16
  13   1    -0.03  -0.01  -0.23    -0.03   0.02  -0.16    -0.05   0.07  -0.13
  14   8    -0.03  -0.12   0.04    -0.01  -0.04   0.03     0.03   0.01   0.04
  15   1     0.01  -0.02   0.04     0.03   0.01   0.03     0.06   0.03   0.01
  16   1     0.02  -0.10  -0.10     0.01   0.08   0.08    -0.11   0.14   0.07
  17   8    -0.00   0.02  -0.01     0.01   0.02  -0.06     0.02  -0.04  -0.01
  18   1    -0.06  -0.07   0.10     0.02   0.07  -0.08     0.10  -0.03  -0.07
  19   1     0.02  -0.05  -0.01    -0.09  -0.04   0.03    -0.17  -0.01   0.06
  20   8     0.01   0.00   0.00     0.01   0.01   0.03    -0.01   0.03   0.06
  21   1    -0.06   0.18   0.02    -0.01   0.04  -0.11     0.07  -0.17  -0.21
  22   1    -0.07   0.20  -0.08     0.09  -0.51   0.25    -0.12   0.18  -0.05
  23   8     0.01  -0.02  -0.04    -0.01   0.04   0.11     0.02  -0.02  -0.04
  24   1     0.02  -0.04   0.24     0.00   0.13  -0.60     0.04  -0.03   0.25
  25   7    -0.00  -0.00  -0.00     0.02   0.01  -0.02     0.04  -0.00  -0.02
  26   1    -0.00   0.01   0.02     0.01   0.00   0.00     0.01   0.02   0.08
  27   1    -0.01   0.02   0.02    -0.00  -0.01  -0.03    -0.02  -0.01  -0.02
  28   1    -0.02   0.01  -0.03     0.00  -0.01   0.01    -0.04  -0.02  -0.03
                     34                     35                     36
                        a                      a                      a 
 Frequencies --   514.8685               536.3182               586.3728
 Red. masses --     1.8648                 1.6443                 1.8345
 Frc consts  --     0.0000                 0.0000                 0.0000
 IR Inten    --     0.3402                 0.3431                 0.3809
 Raman Activ --     0.0000                 0.0000                 0.0000
 Depolar     --     0.0000                 0.0000                 0.0000
 Atom AN      X      Y      Z        X      Y      Z        X      Y      Z
   1   1    -0.20   0.01   0.06    -0.08   0.02   0.02    -0.04   0.61   0.16
   2   8     0.02  -0.01  -0.08     0.02  -0.01  -0.05    -0.01  -0.17  -0.03
   3   1     0.14   0.03   0.18     0.06   0.03   0.08    -0.00  -0.02  -0.00
   4   1     0.01   0.06  -0.21    -0.01   0.02  -0.15    -0.01  -0.07   0.30
   5   8    -0.01  -0.03   0.05     0.01  -0.02  -0.01    -0.04   0.09  -0.06
   6   1    -0.04   0.01   0.08    -0.06  -0.02   0.13     0.03  -0.08  -0.04
   7   1     0.16   0.03   0.02     0.30   0.31   0.04     0.29  -0.10   0.03
   8   8     0.01   0.06  -0.02     0.02   0.04   0.01     0.01   0.01  -0.08
   9   1    -0.17  -0.22   0.10    -0.31  -0.51   0.07    -0.14   0.01   0.30
  10   1     0.02  -0.02   0.02     0.00   0.04  -0.06     0.01  -0.04   0.05
  11   8     0.00   0.00  -0.00     0.01  -0.01   0.02     0.01   0.02  -0.03
  12   1    -0.02   0.01  -0.01    -0.02   0.08   0.04     0.03  -0.07  -0.04
  13   1     0.09  -0.09   0.02     0.04  -0.05   0.27    -0.03   0.04  -0.12
  14   8     0.01   0.03   0.02    -0.06   0.06  -0.10     0.01  -0.00   0.03
  15   1    -0.12  -0.04  -0.11    -0.04   0.00   0.07     0.04   0.01  -0.03
  16   1    -0.08   0.09   0.04    -0.03   0.01  -0.02     0.15  -0.24  -0.16
  17   8     0.00  -0.00  -0.02     0.01  -0.00  -0.01     0.00   0.02   0.04
  18   1     0.07  -0.04  -0.04     0.01  -0.03   0.02    -0.23   0.08   0.14
  19   1     0.44   0.15  -0.16    -0.22  -0.17   0.08     0.01   0.03  -0.00
  20   8    -0.04  -0.02  -0.16     0.08  -0.05   0.09    -0.01   0.00  -0.01
  21   1    -0.03   0.00   0.55    -0.07   0.24  -0.29     0.01  -0.03   0.02
  22   1    -0.05  -0.04   0.05    -0.01  -0.02   0.02     0.03   0.03  -0.04
  23   8     0.00  -0.00   0.01     0.01  -0.00   0.00    -0.02  -0.02   0.01
  24   1     0.02   0.02  -0.03     0.01   0.01  -0.01     0.05   0.04  -0.05
  25   7    -0.09  -0.03   0.07     0.04   0.02  -0.04    -0.00   0.00   0.00
  26   1    -0.03  -0.03  -0.15     0.02   0.02   0.08     0.00  -0.02  -0.02
  27   1     0.07   0.02   0.06    -0.03  -0.01  -0.03    -0.00   0.00   0.00
  28   1     0.07   0.02   0.07    -0.04  -0.01  -0.03     0.02   0.01   0.01
                     37                     38                     39
                        a                      a                      a 
 Frequencies --   609.9427               611.7077               638.8685
 Red. masses --     2.2756                 2.0371                 1.3498
 Frc consts  --     0.0000                 0.0000                 0.0000
 IR Inten    --     0.7040                 0.4647                 0.1475
 Raman Activ --     0.0000                 0.0000                 0.0000
 Depolar     --     0.0000                 0.0000                 0.0000
 Atom AN      X      Y      Z        X      Y      Z        X      Y      Z
   1   1     0.06  -0.60  -0.16    -0.09  -0.00   0.02     0.02   0.16   0.04
   2   8    -0.01   0.22   0.07     0.00  -0.02  -0.04    -0.01  -0.06   0.02
   3   1     0.01  -0.11  -0.03     0.06   0.05   0.09    -0.02  -0.02  -0.03
   4   1     0.13   0.03   0.32    -0.07  -0.02  -0.15    -0.12  -0.17   0.27
   5   8    -0.11   0.01  -0.06     0.06  -0.02   0.06     0.03  -0.01  -0.01
   6   1     0.09  -0.16  -0.15    -0.04   0.10   0.07     0.07   0.17  -0.26
   7   1     0.28  -0.10   0.02    -0.12   0.05  -0.01    -0.01  -0.18  -0.00
   8   8     0.03   0.02  -0.08    -0.03  -0.01   0.04     0.05   0.06  -0.01
   9   1    -0.18  -0.07   0.30     0.10   0.06  -0.13    -0.11  -0.13   0.08
  10   1    -0.03  -0.04   0.07    -0.00  -0.04   0.06    -0.12   0.07   0.00
  11   8     0.03   0.02  -0.03     0.01   0.03  -0.03     0.04  -0.03   0.02
  12   1    -0.06  -0.02  -0.08    -0.03  -0.03  -0.06    -0.20   0.13  -0.06
  13   1     0.01  -0.01  -0.12    -0.01   0.02   0.08     0.08  -0.09  -0.20
  14   8     0.01   0.00   0.04    -0.00  -0.00  -0.01     0.00   0.02   0.03
  15   1    -0.02  -0.01  -0.02     0.02   0.01   0.01    -0.09  -0.03   0.12
  16   1    -0.08  -0.05  -0.15    -0.25  -0.06  -0.31    -0.16   0.26   0.19
  17   8     0.03   0.03   0.01     0.06   0.05   0.04    -0.06   0.01  -0.01
  18   1    -0.10  -0.05   0.14    -0.09  -0.26   0.29     0.45  -0.25  -0.21
  19   1     0.00   0.03  -0.00    -0.00   0.00  -0.00    -0.01  -0.08   0.00
  20   8     0.00  -0.01   0.00    -0.00   0.01  -0.00     0.01   0.00   0.01
  21   1     0.01  -0.03   0.02     0.00  -0.01  -0.00    -0.01   0.05  -0.04
  22   1     0.09  -0.01  -0.04     0.28   0.22  -0.26     0.08   0.10  -0.10
  23   8    -0.03  -0.00   0.04    -0.13  -0.12   0.12    -0.05  -0.04   0.03
  24   1     0.01   0.03  -0.09     0.33   0.27  -0.32     0.12   0.09  -0.06
  25   7     0.00  -0.00   0.01     0.00   0.00  -0.01    -0.01   0.01  -0.01
  26   1    -0.00  -0.00  -0.01    -0.00   0.01   0.01    -0.00   0.02   0.03
  27   1     0.00  -0.00   0.00     0.01  -0.01  -0.01    -0.00  -0.00  -0.01
  28   1    -0.01   0.00  -0.00    -0.00  -0.01   0.01    -0.02  -0.01  -0.01
                     40                     41                     42
                        a                      a                      a 
 Frequencies --   652.9604               679.8941               695.2756
 Red. masses --     2.0331                 1.7968                 2.0837
 Frc consts  --     0.0000                 0.0000                 0.0000
 IR Inten    --     0.6734                 0.7735                 0.8328
 Raman Activ --     0.0000                 0.0000                 0.0000
 Depolar     --     0.0000                 0.0000                 0.0000
 Atom AN      X      Y      Z        X      Y      Z        X      Y      Z
   1   1    -0.01  -0.04  -0.01     0.01  -0.03  -0.01     0.00  -0.05  -0.01
   2   8    -0.00   0.01   0.00    -0.00   0.01   0.01    -0.01   0.03   0.00
   3   1     0.01   0.00   0.01    -0.00  -0.03  -0.01     0.01  -0.01   0.01
   4   1     0.09   0.13  -0.20    -0.01  -0.03   0.07     0.07   0.08  -0.06
   5   8    -0.03  -0.00   0.07    -0.02  -0.03  -0.01    -0.06  -0.01  -0.00
   6   1     0.04   0.03  -0.10     0.04   0.03  -0.13     0.02  -0.06  -0.04
   7   1    -0.29  -0.28  -0.03     0.08   0.12   0.01     0.16   0.10   0.01
   8   8     0.08   0.15   0.05     0.01  -0.02   0.01    -0.06  -0.07  -0.04
   9   1    -0.10  -0.30  -0.12    -0.04  -0.07   0.02     0.06   0.20   0.10
  10   1    -0.03  -0.04   0.07     0.25  -0.12  -0.04    -0.11   0.13  -0.10
  11   8     0.03  -0.01  -0.03    -0.17   0.06  -0.02     0.08  -0.10   0.06
  12   1     0.01  -0.05  -0.04     0.51  -0.31   0.19    -0.27   0.25  -0.01
  13   1     0.18  -0.21  -0.36    -0.10   0.11  -0.02    -0.02   0.03   0.29
  14   8    -0.04   0.09   0.09    -0.05   0.00   0.03     0.04  -0.04  -0.09
  15   1    -0.23  -0.07   0.03     0.10   0.05  -0.29     0.04   0.00   0.17
  16   1     0.22  -0.13   0.05    -0.05   0.22   0.25     0.29  -0.03   0.26
  17   8    -0.01  -0.06   0.01     0.01  -0.07   0.00    -0.06  -0.08   0.02
  18   1    -0.25   0.30  -0.02     0.04   0.19  -0.18    -0.05   0.34  -0.22
  19   1    -0.04  -0.07   0.02    -0.02   0.02   0.01     0.03   0.04  -0.02
  20   8     0.05  -0.04   0.01    -0.00  -0.01   0.03    -0.01   0.01  -0.03
  21   1    -0.04   0.14  -0.07    -0.00   0.01  -0.01     0.02  -0.06   0.05
  22   1     0.09   0.12  -0.11     0.14   0.17  -0.16     0.21   0.23  -0.23
  23   8    -0.04  -0.03   0.01    -0.07  -0.05   0.03    -0.09  -0.07   0.04
  24   1     0.07   0.05  -0.02     0.16   0.11  -0.07     0.17   0.12  -0.09
  25   7     0.02   0.01   0.00     0.01  -0.01  -0.01     0.00   0.01   0.01
  26   1     0.01  -0.02  -0.02     0.00   0.00   0.01     0.00  -0.02  -0.06
  27   1    -0.00  -0.01  -0.01     0.00   0.02   0.02     0.01   0.01   0.01
  28   1     0.03   0.00   0.03    -0.01   0.00  -0.02     0.02   0.01   0.01
                     43                     44                     45
                        a                      a                      a 
 Frequencies --   726.6907               758.4564               812.0979
 Red. masses --     1.8263                 1.4765                 1.9106
 Frc consts  --     0.0000                 0.0000                 0.0000
 IR Inten    --     0.6980                 0.5730                 0.3756
 Raman Activ --     0.0000                 0.0000                 0.0000
 Depolar     --     0.0000                 0.0000                 0.0000
 Atom AN      X      Y      Z        X      Y      Z        X      Y      Z
   1   1     0.00   0.03   0.01     0.02   0.03   0.00     0.03   0.04   0.01
   2   8    -0.00  -0.01  -0.00    -0.00  -0.01   0.01     0.00  -0.02   0.03
   3   1    -0.00   0.01  -0.00    -0.02  -0.00  -0.02    -0.03  -0.02  -0.04
   4   1    -0.01  -0.01   0.00    -0.00  -0.01   0.05     0.03   0.05  -0.10
   5   8     0.00   0.00  -0.00    -0.01   0.00   0.02    -0.02  -0.05   0.12
   6   1    -0.00   0.01   0.00     0.03   0.06  -0.11     0.09   0.19  -0.31
   7   1    -0.01  -0.03  -0.00    -0.01  -0.31  -0.02    -0.14  -0.43  -0.03
   8   8    -0.01   0.01  -0.01    -0.03   0.02  -0.09     0.10   0.11  -0.05
   9   1     0.03   0.07   0.02     0.05   0.25   0.15    -0.15  -0.25   0.01
  10   1    -0.02   0.02  -0.01     0.06  -0.04  -0.00     0.01   0.04  -0.06
  11   8     0.02  -0.02   0.02    -0.04   0.02  -0.01     0.02  -0.01   0.02
  12   1    -0.14   0.13  -0.02     0.14  -0.08   0.04    -0.03   0.06   0.02
  13   1     0.11  -0.11   0.10     0.26  -0.28   0.55    -0.23   0.26   0.36
  14   8     0.01   0.03   0.09     0.01   0.08  -0.09    -0.01  -0.05  -0.08
  15   1    -0.14  -0.06  -0.51    -0.35  -0.13  -0.12     0.32   0.12   0.09
  16   1     0.00  -0.00   0.00    -0.09   0.05  -0.02    -0.14   0.08  -0.03
  17   8    -0.01   0.00  -0.00     0.03  -0.00  -0.01     0.06  -0.02  -0.04
  18   1     0.03  -0.03  -0.00    -0.05   0.00   0.04    -0.16   0.06   0.09
  19   1    -0.31   0.64   0.11     0.08  -0.31  -0.02    -0.03   0.19   0.01
  20   8     0.09  -0.18   0.00     0.02   0.05   0.04    -0.02  -0.04  -0.03
  21   1    -0.06   0.17  -0.04    -0.02   0.07  -0.06     0.01  -0.05   0.05
  22   1     0.00  -0.00  -0.00    -0.03  -0.02   0.02    -0.05  -0.03   0.04
  23   8     0.00   0.00  -0.00     0.01   0.01  -0.01     0.01   0.01  -0.01
  24   1     0.00   0.00   0.00    -0.01  -0.01   0.01    -0.02  -0.02   0.03
  25   7     0.04  -0.06  -0.00    -0.00   0.02  -0.00    -0.00  -0.02  -0.00
  26   1     0.00   0.02   0.02     0.00  -0.00   0.00    -0.00  -0.00   0.00
  27   1     0.02   0.03   0.06    -0.01  -0.01  -0.02     0.01   0.01   0.02
  28   1    -0.06  -0.00  -0.09     0.01  -0.00   0.02    -0.01   0.00  -0.01
                     46                     47                     48
                        a                      a                      a 
 Frequencies --   828.3707               886.8729               911.1238
 Red. masses --     1.9372                 2.1170                 1.8519
 Frc consts  --     0.0000                 0.0000                 0.0000
 IR Inten    --     0.9659                 0.7931                 0.8151
 Raman Activ --     0.0000                 0.0000                 0.0000
 Depolar     --     0.0000                 0.0000                 0.0000
 Atom AN      X      Y      Z        X      Y      Z        X      Y      Z
   1   1     0.00   0.04   0.01    -0.08  -0.06  -0.00     0.02   0.03   0.00
   2   8     0.00  -0.02  -0.00     0.02   0.03  -0.06    -0.00  -0.02   0.01
   3   1    -0.01   0.02   0.00     0.06   0.01   0.07    -0.02   0.01  -0.02
   4   1    -0.11  -0.13   0.09    -0.12  -0.17   0.31    -0.01   0.01  -0.07
   5   8     0.06  -0.02  -0.03     0.09   0.10  -0.19    -0.00  -0.04   0.05
   6   1    -0.02   0.08  -0.00    -0.19  -0.26   0.60     0.04   0.09  -0.14
   7   1     0.08   0.18   0.01    -0.21  -0.34  -0.03     0.04   0.12   0.01
   8   8    -0.04  -0.05   0.02     0.06   0.08  -0.01    -0.00  -0.03   0.02
   9   1     0.06   0.10  -0.00    -0.06  -0.14  -0.05     0.01  -0.02  -0.03
  10   1    -0.04   0.01   0.02    -0.01   0.04  -0.04    -0.10   0.08  -0.03
  11   8     0.04  -0.03  -0.01     0.01  -0.02   0.02     0.08  -0.05   0.02
  12   1    -0.05   0.02  -0.02    -0.06   0.06  -0.01    -0.28   0.19  -0.08
  13   1     0.09  -0.10  -0.14    -0.06   0.06   0.11    -0.08   0.09  -0.11
  14   8     0.01   0.02  -0.03    -0.00  -0.02   0.00     0.03  -0.04   0.14
  15   1    -0.11  -0.04   0.29     0.09   0.03  -0.13     0.10   0.03  -0.65
  16   1    -0.46   0.39   0.06    -0.06   0.11   0.09    -0.14   0.10  -0.01
  17   8     0.17  -0.12  -0.04     0.02  -0.04   0.01     0.06  -0.03  -0.02
  18   1    -0.41   0.34   0.10    -0.04   0.13  -0.06    -0.16   0.12   0.05
  19   1    -0.05   0.15   0.02     0.02  -0.07  -0.01     0.10  -0.43  -0.03
  20   8     0.02  -0.04  -0.04    -0.01   0.01   0.02    -0.03   0.10   0.07
  21   1    -0.02   0.04   0.01     0.01  -0.02  -0.00     0.04  -0.09  -0.05
  22   1    -0.07  -0.03   0.05     0.04   0.04  -0.04    -0.03  -0.01   0.02
  23   8     0.01   0.01  -0.02    -0.02  -0.01   0.01     0.00   0.01  -0.01
  24   1    -0.00  -0.01   0.05     0.05   0.03  -0.01    -0.00  -0.01   0.02
  25   7     0.01  -0.02   0.01    -0.00   0.01   0.01    -0.01   0.04   0.01
  26   1     0.00  -0.01  -0.01     0.00  -0.01  -0.01     0.00  -0.02  -0.02
  27   1     0.01  -0.01  -0.00    -0.01  -0.00  -0.01    -0.02  -0.04  -0.06
  28   1     0.01  -0.00   0.01     0.00   0.00   0.00     0.03   0.00   0.04
                     49                     50                     51
                        a                      a                      a 
 Frequencies --  1237.1768              1546.2627              1549.3853
 Red. masses --     3.2066                 2.2078                 1.9882
 Frc consts  --     0.0000                 0.0000                 0.0000
 IR Inten    --     0.6876                 0.4082                 0.3709
 Raman Activ --     0.0000                 0.0000                 0.0000
 Depolar     --     0.0000                 0.0000                 0.0000
 Atom AN      X      Y      Z        X      Y      Z        X      Y      Z
   1   1    -0.00  -0.01  -0.00    -0.64  -0.09   0.19     0.12   0.01  -0.04
   2   8    -0.00   0.00  -0.00     0.26   0.00   0.08    -0.05   0.00  -0.01
   3   1     0.00  -0.00   0.00    -0.36   0.11  -0.50     0.07  -0.02   0.09
   4   1     0.00  -0.00   0.01     0.10   0.06   0.06    -0.02  -0.01  -0.02
   5   8     0.00   0.00  -0.00    -0.02  -0.05  -0.03     0.01   0.01   0.01
   6   1    -0.00  -0.01   0.01    -0.04   0.11   0.05     0.01  -0.03  -0.01
   7   1     0.00   0.00  -0.00    -0.01   0.02  -0.00    -0.11   0.07  -0.02
   8   8    -0.00  -0.00   0.00     0.00  -0.01  -0.00     0.03  -0.02  -0.03
   9   1     0.00   0.00   0.00    -0.00   0.01   0.02    -0.04   0.04   0.12
  10   1    -0.01   0.01  -0.01     0.01   0.01  -0.03     0.03   0.01  -0.04
  11   8     0.01  -0.01   0.00    -0.00   0.00   0.01    -0.00   0.01   0.02
  12   1    -0.02   0.01  -0.01    -0.01  -0.02  -0.02    -0.01  -0.04  -0.04
  13   1    -0.00  -0.00  -0.00     0.07  -0.08  -0.00     0.27  -0.33   0.00
  14   8     0.00   0.00   0.00    -0.04   0.01   0.00    -0.16   0.03   0.00
  15   1     0.01   0.00  -0.02     0.10   0.04  -0.00     0.41   0.17  -0.00
  16   1    -0.00  -0.01  -0.01    -0.02  -0.01  -0.03     0.01   0.00   0.01
  17   8    -0.00   0.00   0.01     0.00  -0.00   0.02    -0.00   0.00  -0.00
  18   1    -0.01   0.02  -0.01     0.02   0.03  -0.03    -0.00  -0.01   0.01
  19   1    -0.02  -0.01  -0.01    -0.06  -0.02   0.02    -0.46  -0.19   0.13
  20   8     0.01   0.00   0.02     0.01   0.01  -0.02     0.10   0.06  -0.14
  21   1     0.00  -0.00   0.01     0.00  -0.01   0.06     0.02  -0.07   0.45
  22   1    -0.00   0.00  -0.00     0.00   0.00  -0.00     0.00  -0.00   0.00
  23   8     0.00  -0.00   0.00    -0.00  -0.00   0.00    -0.00   0.00  -0.00
  24   1    -0.01  -0.00  -0.01     0.01   0.00  -0.00     0.00  -0.00   0.01
  25   7    -0.17  -0.08  -0.37     0.01   0.00  -0.00     0.00   0.01   0.00
  26   1     0.05   0.06   0.51     0.00  -0.01  -0.01     0.00  -0.01   0.01
  27   1     0.23   0.26   0.37    -0.01   0.01   0.01     0.01  -0.01  -0.02
  28   1     0.35  -0.04   0.42    -0.01  -0.01   0.01    -0.01   0.01  -0.02
                     52                     53                     54
                        a                      a                      a 
 Frequencies --  1563.9601              1566.7637              1571.8176
 Red. masses --     2.0152                 2.0618                 1.8548
 Frc consts  --     0.0000                 0.0000                 0.0000
 IR Inten    --     0.4886                 0.6909                 0.2520
 Raman Activ --     0.0000                 0.0000                 0.0000
 Depolar     --     0.0000                 0.0000                 0.0000
 Atom AN      X      Y      Z        X      Y      Z        X      Y      Z
   1   1     0.02   0.00  -0.01     0.14   0.04  -0.04     0.03   0.01  -0.01
   2   8    -0.01   0.00  -0.00    -0.05  -0.01  -0.02    -0.01  -0.00  -0.00
   3   1     0.01  -0.01   0.02     0.08  -0.01   0.11     0.01  -0.00   0.02
   4   1    -0.08  -0.04  -0.06     0.47   0.27   0.27     0.02   0.01   0.02
   5   8     0.01   0.03   0.02    -0.06  -0.21  -0.12    -0.00  -0.01  -0.01
   6   1     0.04  -0.10  -0.03    -0.26   0.58   0.21    -0.01   0.04   0.00
   7   1    -0.19   0.11  -0.03    -0.01   0.03  -0.00     0.10  -0.06   0.02
   8   8     0.06  -0.03  -0.04     0.00  -0.01  -0.00    -0.03   0.02   0.02
   9   1    -0.07   0.04   0.20    -0.00   0.01   0.02     0.04  -0.02  -0.10
  10   1     0.07   0.07  -0.15     0.01   0.01  -0.02    -0.00  -0.01   0.01
  11   8    -0.00   0.01   0.07    -0.00   0.00   0.01    -0.00  -0.00  -0.00
  12   1    -0.06  -0.12  -0.13    -0.01  -0.02  -0.02     0.01   0.01   0.01
  13   1     0.24  -0.29  -0.00     0.05  -0.06  -0.01    -0.05   0.06  -0.00
  14   8    -0.14   0.03   0.01    -0.03   0.01   0.00     0.03  -0.01  -0.00
  15   1     0.37   0.14  -0.02     0.08   0.03  -0.00    -0.08  -0.03   0.00
  16   1    -0.01  -0.01  -0.02    -0.06  -0.04  -0.11    -0.07  -0.03  -0.11
  17   8     0.00  -0.00   0.01     0.00  -0.01   0.05     0.00  -0.01   0.05
  18   1     0.01   0.02  -0.02     0.05   0.08  -0.10     0.05   0.06  -0.09
  19   1     0.42   0.19  -0.12     0.07   0.03  -0.02    -0.11  -0.05   0.03
  20   8    -0.10  -0.06   0.13    -0.02  -0.01   0.02     0.03   0.02  -0.03
  21   1    -0.01   0.04  -0.39    -0.00   0.00  -0.07     0.00  -0.01   0.11
  22   1    -0.02   0.02  -0.00    -0.00   0.00  -0.00    -0.02   0.02   0.00
  23   8     0.01  -0.00   0.01     0.00  -0.00   0.00     0.01  -0.00   0.00
  24   1    -0.01  -0.01  -0.02    -0.00   0.00  -0.01    -0.02  -0.01  -0.02
  25   7     0.02   0.04  -0.02     0.00  -0.03   0.01     0.17   0.13  -0.11
  26   1     0.03  -0.12  -0.06    -0.02   0.07  -0.01     0.07  -0.25  -0.22
  27   1    -0.02   0.06   0.08    -0.04  -0.01  -0.01    -0.30   0.24   0.28
  28   1    -0.12  -0.12   0.08     0.05   0.03  -0.01    -0.40  -0.47   0.33
                     55                     56                     57
                        a                      a                      a 
 Frequencies --  1582.3255              1588.1422              1596.7051
 Red. masses --     1.8161                 2.1019                 2.0865
 Frc consts  --     0.0000                 0.0000                 0.0000
 IR Inten    --     0.2979                 0.8353                 0.5522
 Raman Activ --     0.0000                 0.0000                 0.0000
 Depolar     --     0.0000                 0.0000                 0.0000
 Atom AN      X      Y      Z        X      Y      Z        X      Y      Z
   1   1    -0.00  -0.00   0.00     0.02   0.00  -0.01    -0.01   0.00   0.00
   2   8     0.00   0.00   0.00    -0.01   0.00  -0.00     0.00  -0.00  -0.00
   3   1    -0.00  -0.00  -0.01     0.01  -0.00   0.01    -0.00   0.01   0.00
   4   1    -0.05  -0.03  -0.04    -0.03  -0.02  -0.02     0.02   0.02  -0.01
   5   8     0.01   0.02   0.02     0.00   0.02   0.01     0.01  -0.02  -0.00
   6   1     0.03  -0.07  -0.02     0.02  -0.04  -0.03    -0.02   0.04   0.03
   7   1    -0.06   0.03  -0.01     0.16  -0.09   0.02    -0.52   0.28  -0.07
   8   8     0.02  -0.01  -0.01    -0.05   0.03   0.03     0.18  -0.08  -0.11
   9   1    -0.02   0.01   0.06     0.06  -0.03  -0.15    -0.20   0.06   0.49
  10   1     0.04   0.03  -0.07     0.25   0.18  -0.44     0.07   0.05  -0.12
  11   8    -0.00   0.00   0.03    -0.03   0.04   0.22    -0.01   0.01   0.06
  12   1    -0.03  -0.05  -0.06    -0.16  -0.37  -0.42    -0.05  -0.10  -0.12
  13   1    -0.01   0.01   0.00    -0.04   0.06  -0.02    -0.18   0.22   0.01
  14   8     0.00   0.00  -0.00     0.04   0.01  -0.00     0.11  -0.02  -0.01
  15   1    -0.01  -0.01   0.00    -0.11  -0.05   0.02    -0.28  -0.11   0.02
  16   1    -0.02  -0.01  -0.03    -0.10  -0.07  -0.18     0.00   0.01   0.01
  17   8     0.00  -0.00   0.01     0.00  -0.02   0.08    -0.00   0.00  -0.01
  18   1     0.01   0.02  -0.03     0.09   0.13  -0.16    -0.01  -0.01   0.02
  19   1    -0.00   0.00   0.00    -0.07  -0.02   0.03    -0.10  -0.04   0.03
  20   8     0.00  -0.00  -0.00     0.02   0.00  -0.03     0.03   0.01  -0.03
  21   1    -0.00   0.00   0.00    -0.01   0.01   0.06    -0.00   0.01   0.08
  22   1    -0.02   0.03  -0.00    -0.12   0.14  -0.01     0.08  -0.09   0.01
  23   8     0.01  -0.01   0.01     0.06  -0.02   0.04    -0.04   0.02  -0.03
  24   1    -0.02  -0.01  -0.03    -0.11  -0.04  -0.15     0.07   0.03   0.09
  25   7     0.14  -0.20  -0.01    -0.04   0.01   0.02     0.00   0.03  -0.01
  26   1    -0.19   0.64  -0.17     0.01  -0.04   0.05     0.02  -0.08   0.00
  27   1    -0.59   0.06   0.08     0.11  -0.05  -0.06     0.03   0.01   0.02
  28   1     0.24   0.03   0.14     0.02   0.07  -0.07    -0.06  -0.04   0.02
                     58                     59                     60
                        a                      a                      a 
 Frequencies --  1602.4400              1623.1662              2993.8940
 Red. masses --     2.1015                 2.0373                 1.9231
 Frc consts  --     0.0000                 0.0000                 0.0000
 IR Inten    --     0.5956                 0.3863                 0.9933
 Raman Activ --     0.0000                 0.0000                 0.0000
 Depolar     --     0.0000                 0.0000                 0.0000
 Atom AN      X      Y      Z        X      Y      Z        X      Y      Z
   1   1     0.00   0.00  -0.00     0.01   0.00  -0.00     0.00   0.00   0.00
   2   8    -0.00  -0.00  -0.00    -0.00   0.00   0.00     0.00  -0.00  -0.00
   3   1     0.00  -0.00   0.00     0.00  -0.00   0.00    -0.00   0.00  -0.00
   4   1     0.03   0.02   0.01    -0.09  -0.05  -0.07    -0.00  -0.00  -0.00
   5   8    -0.01  -0.01  -0.00     0.02   0.04   0.03    -0.00  -0.00   0.00
   6   1    -0.01   0.02   0.00     0.05  -0.10  -0.05     0.01   0.00   0.00
   7   1     0.16  -0.08   0.03    -0.04   0.01  -0.01    -0.01  -0.00   0.04
   8   8    -0.05   0.03   0.03     0.01  -0.00  -0.01     0.00   0.00  -0.01
   9   1     0.06  -0.02  -0.16    -0.02   0.00   0.04     0.00  -0.00  -0.00
  10   1     0.10   0.06  -0.17    -0.07  -0.04   0.11     0.00  -0.00  -0.01
  11   8    -0.01   0.02   0.08    -0.00  -0.02  -0.06     0.01   0.01  -0.01
  12   1    -0.07  -0.15  -0.17     0.06   0.12   0.14    -0.04  -0.04   0.04
  13   1     0.03  -0.03  -0.01     0.01  -0.01   0.01     0.05   0.02  -0.00
  14   8    -0.01   0.01   0.00    -0.01  -0.00  -0.01     0.02  -0.10   0.00
  15   1     0.02   0.01   0.00     0.03   0.01   0.00    -0.14   0.35   0.01
  16   1     0.08   0.04   0.12    -0.27  -0.20  -0.50    -0.01  -0.01   0.00
  17   8    -0.01   0.02  -0.06     0.01  -0.03   0.22    -0.00  -0.00  -0.00
  18   1    -0.05  -0.10   0.12     0.23   0.33  -0.43     0.01   0.01   0.01
  19   1     0.01   0.00  -0.00     0.01   0.01  -0.00    -0.27   0.02  -0.85
  20   8    -0.00  -0.00   0.00    -0.00  -0.00   0.00     0.07   0.00   0.21
  21   1    -0.00   0.00  -0.01     0.00  -0.00  -0.01    -0.00  -0.00   0.03
  22   1     0.39  -0.45   0.03     0.15  -0.19   0.02    -0.00   0.00  -0.00
  23   8    -0.18   0.08  -0.13    -0.07   0.03  -0.05     0.00  -0.00   0.00
  24   1     0.34   0.12   0.47     0.13   0.05   0.19    -0.00   0.00  -0.00
  25   7     0.01  -0.01  -0.01    -0.02  -0.01   0.02    -0.00   0.00   0.00
  26   1    -0.01   0.02  -0.01    -0.01   0.02   0.03    -0.01  -0.00  -0.01
  27   1    -0.04   0.02   0.02     0.05  -0.03  -0.04    -0.00   0.00  -0.01
  28   1     0.00  -0.02   0.04     0.04   0.07  -0.06     0.00  -0.02  -0.02
                     61                     62                     63
                        a                      a                      a 
 Frequencies --  3099.6617              3136.8637              3169.7161
 Red. masses --     1.9238                 1.8798                 1.9462
 Frc consts  --     0.0000                 0.0000                 0.0000
 IR Inten    --     1.0705                 1.1038                 0.4172
 Raman Activ --     0.0000                 0.0000                 0.0000
 Depolar     --     0.0000                 0.0000                 0.0000
 Atom AN      X      Y      Z        X      Y      Z        X      Y      Z
   1   1    -0.00   0.00  -0.01    -0.02   0.01  -0.05    -0.02   0.01  -0.04
   2   8     0.00  -0.00   0.00     0.01  -0.00   0.01     0.01  -0.00   0.01
   3   1    -0.00  -0.00   0.00    -0.02  -0.01   0.00    -0.01  -0.01   0.00
   4   1     0.00   0.00   0.00    -0.01   0.05   0.02    -0.02   0.06   0.02
   5   8     0.02   0.00   0.01     0.16   0.03   0.06     0.12   0.01   0.05
   6   1    -0.07  -0.02  -0.03    -0.63  -0.16  -0.27    -0.46  -0.12  -0.20
   7   1     0.01   0.00  -0.09     0.07  -0.01  -0.60    -0.05   0.00   0.45
   8   8    -0.00  -0.00   0.02    -0.01  -0.01   0.15     0.01   0.01  -0.11
   9   1    -0.00   0.00   0.00    -0.03   0.02   0.01     0.02  -0.01  -0.01
  10   1     0.01   0.01   0.02    -0.00  -0.01  -0.01     0.01   0.02   0.03
  11   8    -0.03  -0.03   0.03     0.03   0.03  -0.03    -0.06  -0.06   0.06
  12   1     0.12   0.12  -0.13    -0.09  -0.09   0.11     0.22   0.22  -0.26
  13   1    -0.09  -0.05  -0.00    -0.12  -0.10   0.01     0.21   0.17  -0.01
  14   8    -0.05   0.21  -0.00     0.04   0.00   0.00    -0.04  -0.06  -0.00
  15   1     0.31  -0.79   0.00    -0.03   0.10  -0.00    -0.03   0.06   0.00
  16   1    -0.00  -0.00   0.01    -0.02  -0.02   0.02    -0.21  -0.28   0.23
  17   8     0.00   0.00   0.00     0.00   0.00  -0.01     0.09   0.10  -0.02
  18   1    -0.01  -0.01  -0.01     0.02   0.01   0.01    -0.12  -0.10  -0.15
  19   1    -0.12   0.00  -0.37     0.00   0.00   0.01     0.01   0.00   0.02
  20   8     0.03   0.00   0.09    -0.00  -0.00  -0.00    -0.00  -0.00  -0.01
  21   1    -0.02  -0.01   0.02     0.00   0.00  -0.00     0.00   0.00  -0.00
  22   1    -0.00  -0.00  -0.00     0.00   0.00   0.01     0.00   0.01   0.01
  23   8     0.00   0.00   0.00    -0.00  -0.00  -0.00    -0.00  -0.00  -0.00
  24   1     0.00  -0.00   0.00    -0.00  -0.00   0.00    -0.00   0.00  -0.00
  25   7     0.00   0.00   0.00     0.00  -0.00   0.00    -0.00   0.00   0.00
  26   1    -0.00  -0.00  -0.00     0.00   0.00  -0.00     0.00   0.00   0.00
  27   1    -0.00  -0.00  -0.01    -0.00   0.00  -0.00     0.00   0.00  -0.00
  28   1     0.00  -0.01  -0.01    -0.00  -0.00  -0.00     0.00  -0.00  -0.00
                     64                     65                     66
                        a                      a                      a 
 Frequencies --  3211.8716              3247.9793              3284.5183
 Red. masses --     1.9149                 2.0165                 1.7860
 Frc consts  --     0.0000                 0.0000                 0.0000
 IR Inten    --     1.3352                 0.8118                 0.3964
 Raman Activ --     0.0000                 0.0000                 0.0000
 Depolar     --     0.0000                 0.0000                 0.0000
 Atom AN      X      Y      Z        X      Y      Z        X      Y      Z
   1   1    -0.01   0.00  -0.03     0.02  -0.01   0.06     0.14  -0.11   0.47
   2   8     0.00  -0.00   0.01    -0.01   0.00  -0.01    -0.04   0.03  -0.11
   3   1    -0.00  -0.00   0.00     0.01   0.00  -0.00    -0.00   0.00  -0.02
   4   1    -0.02   0.04   0.01     0.06  -0.09  -0.03     0.01  -0.01  -0.01
   5   8     0.05   0.00   0.02    -0.08   0.01  -0.02    -0.00   0.00   0.00
   6   1    -0.19  -0.05  -0.08     0.27   0.07   0.12     0.01   0.00   0.00
   7   1    -0.06   0.01   0.49     0.03   0.00  -0.25     0.02  -0.00  -0.18
   8   8    -0.00   0.01  -0.12    -0.01  -0.00   0.06     0.01  -0.01   0.05
   9   1     0.06  -0.03   0.01    -0.01   0.01   0.00    -0.07   0.04  -0.03
  10   1    -0.02  -0.04  -0.05    -0.01  -0.01  -0.02    -0.01  -0.02  -0.02
  11   8     0.11   0.11  -0.11     0.02   0.02  -0.02     0.04   0.04  -0.04
  12   1    -0.41  -0.39   0.49    -0.08  -0.08   0.09    -0.15  -0.14   0.18
  13   1    -0.14  -0.11   0.01    -0.18  -0.15   0.00     0.55   0.50  -0.00
  14   8     0.02   0.07   0.00     0.04   0.04  -0.00    -0.15  -0.09   0.00
  15   1     0.07  -0.18   0.00     0.00   0.01   0.00     0.04  -0.15   0.00
  16   1    -0.06  -0.08   0.05    -0.34  -0.46   0.37    -0.04  -0.05   0.04
  17   8     0.01   0.01  -0.02     0.15   0.17  -0.01     0.01   0.01  -0.01
  18   1     0.04   0.03   0.03    -0.27  -0.23  -0.33    -0.01  -0.00  -0.01
  19   1    -0.01  -0.00  -0.01    -0.00   0.00  -0.01    -0.00  -0.00  -0.00
  20   8     0.00   0.00   0.00     0.00  -0.00   0.00     0.00   0.00  -0.00
  21   1    -0.00  -0.00   0.00    -0.00   0.00   0.00    -0.01  -0.00   0.00
  22   1     0.01   0.01   0.02     0.00   0.01   0.01     0.00   0.00   0.00
  23   8    -0.00  -0.00  -0.00    -0.00  -0.00  -0.00    -0.00  -0.00  -0.00
  24   1    -0.00   0.00  -0.00    -0.01   0.01   0.00    -0.00   0.00   0.00
  25   7    -0.00   0.00   0.00     0.00   0.00  -0.00     0.00   0.00  -0.00
  26   1    -0.00  -0.00   0.00    -0.00  -0.00   0.00    -0.00  -0.00   0.00
  27   1    -0.00   0.00  -0.00    -0.00  -0.00   0.00     0.00  -0.00   0.00
  28   1     0.01  -0.01  -0.01    -0.00   0.00  -0.00     0.00  -0.01  -0.00
                     67                     68                     69
                        a                      a                      a 
 Frequencies --  3285.5030              3321.7098              3350.5869
 Red. masses --     1.8189                 1.6288                 1.8988
 Frc consts  --     0.0000                 0.0000                 0.0000
 IR Inten    --     0.3176                 0.6648                 0.1887
 Raman Activ --     0.0000                 0.0000                 0.0000
 Depolar     --     0.0000                 0.0000                 0.0000
 Atom AN      X      Y      Z        X      Y      Z        X      Y      Z
   1   1    -0.24   0.19  -0.77     0.00  -0.00   0.01     0.00  -0.00   0.00
   2   8     0.06  -0.05   0.19     0.00   0.00  -0.00     0.00   0.00  -0.00
   3   1     0.01  -0.01   0.03    -0.00  -0.00  -0.00    -0.00  -0.00   0.00
   4   1     0.02  -0.03  -0.01    -0.04   0.06   0.02     0.00  -0.00  -0.00
   5   8    -0.03   0.00  -0.01     0.03  -0.01   0.00    -0.00   0.00  -0.00
   6   1     0.09   0.03   0.04    -0.07  -0.02  -0.03     0.00   0.00   0.00
   7   1     0.02  -0.00  -0.13    -0.01   0.00   0.05    -0.00   0.00  -0.00
   8   8     0.01  -0.01   0.04     0.00   0.00  -0.01    -0.00   0.00   0.00
   9   1    -0.05   0.02  -0.02     0.01  -0.00   0.00     0.01  -0.00   0.00
  10   1    -0.01  -0.02  -0.02    -0.02  -0.04  -0.04     0.00   0.00   0.00
  11   8     0.02   0.02  -0.02     0.02   0.02  -0.00    -0.00  -0.00  -0.00
  12   1    -0.09  -0.08   0.11    -0.04  -0.04   0.05     0.00   0.00   0.00
  13   1     0.32   0.29  -0.00     0.01   0.01   0.00    -0.00  -0.00   0.00
  14   8    -0.09  -0.05   0.00    -0.00  -0.00  -0.00     0.00   0.00  -0.00
  15   1     0.02  -0.09   0.00     0.00  -0.01   0.00    -0.00   0.00   0.00
  16   1    -0.03  -0.04   0.03     0.27   0.36  -0.25    -0.02  -0.03   0.02
  17   8     0.01   0.01   0.00     0.04   0.01   0.19    -0.00   0.00  -0.01
  18   1    -0.03  -0.02  -0.03    -0.46  -0.40  -0.50     0.03   0.02   0.03
  19   1    -0.00  -0.00  -0.00    -0.01   0.00  -0.02     0.00   0.00   0.00
  20   8     0.00   0.00   0.00     0.00   0.00   0.00    -0.00  -0.00  -0.00
  21   1    -0.00  -0.00   0.00    -0.00   0.00   0.00    -0.00   0.00  -0.00
  22   1    -0.00  -0.00  -0.00    -0.04  -0.05  -0.09    -0.07  -0.02  -0.10
  23   8    -0.00   0.00   0.00     0.00   0.02   0.03    -0.11   0.21   0.07
  24   1     0.00  -0.00  -0.00     0.03  -0.04  -0.01     0.49  -0.81  -0.17
  25   7     0.00   0.00  -0.00     0.02  -0.03  -0.02    -0.00   0.01   0.01
  26   1    -0.00  -0.00   0.00     0.03   0.00  -0.01    -0.01  -0.00   0.00
  27   1     0.00  -0.00   0.00    -0.00  -0.03   0.01     0.00   0.01  -0.01
  28   1     0.00  -0.00  -0.00    -0.09   0.13   0.08     0.03  -0.04  -0.02
                     70                     71                     72
                        a                      a                      a 
 Frequencies --  3370.0765              3390.1835              3420.1139
 Red. masses --     1.4373                 1.7851                 1.8445
 Frc consts  --     0.0000                 0.0000                 0.0000
 IR Inten    --     0.3143                 0.1996                 0.1107
 Raman Activ --     0.0000                 0.0000                 0.0000
 Depolar     --     0.0000                 0.0000                 0.0000
 Atom AN      X      Y      Z        X      Y      Z        X      Y      Z
   1   1    -0.00  -0.00  -0.00    -0.00  -0.00   0.00    -0.00   0.00  -0.00
   2   8     0.00  -0.00  -0.00     0.00   0.00  -0.00    -0.00  -0.00   0.00
   3   1    -0.00   0.00   0.00    -0.00  -0.00   0.00     0.00   0.00  -0.00
   4   1     0.01  -0.01  -0.00    -0.00   0.00   0.00    -0.01   0.01   0.00
   5   8    -0.00   0.00  -0.00     0.00   0.00  -0.00     0.00  -0.00  -0.00
   6   1     0.00   0.00   0.00    -0.01  -0.00  -0.00     0.00  -0.00   0.00
   7   1    -0.00   0.00   0.00     0.01  -0.01   0.11     0.00  -0.00  -0.00
   8   8     0.00  -0.00   0.00     0.19  -0.10   0.07     0.00  -0.00   0.00
   9   1    -0.00   0.00  -0.00    -0.77   0.43  -0.39    -0.00   0.00  -0.00
  10   1     0.01   0.02   0.01     0.00   0.00   0.00    -0.01  -0.02  -0.01
  11   8    -0.00  -0.00  -0.00    -0.00  -0.00   0.00     0.00   0.00   0.00
  12   1     0.00   0.00   0.00     0.00  -0.00  -0.00     0.00   0.00  -0.00
  13   1     0.00   0.00  -0.00    -0.06  -0.07   0.00    -0.00  -0.00   0.00
  14   8    -0.00  -0.00   0.00     0.02   0.01  -0.00     0.00  -0.00  -0.00
  15   1    -0.00   0.00  -0.00    -0.00   0.01   0.00    -0.00   0.00   0.00
  16   1    -0.05  -0.07   0.05     0.00   0.00  -0.00     0.01   0.01  -0.01
  17   8    -0.01  -0.00  -0.03    -0.00  -0.00   0.00     0.00   0.00   0.01
  18   1     0.09   0.07   0.09     0.00   0.00   0.00    -0.02  -0.01  -0.02
  19   1    -0.01  -0.00  -0.02    -0.00   0.00   0.00    -0.00   0.00  -0.00
  20   8     0.00   0.00   0.01    -0.00  -0.00  -0.00     0.00   0.00   0.00
  21   1    -0.00  -0.00   0.00     0.00   0.00  -0.00    -0.01  -0.00   0.00
  22   1     0.02   0.03   0.04    -0.00  -0.00  -0.00    -0.02  -0.03  -0.05
  23   8    -0.01   0.00  -0.01    -0.00   0.00   0.00     0.01   0.00   0.01
  24   1     0.02  -0.04  -0.01     0.00  -0.01  -0.00    -0.01   0.01   0.00
  25   7     0.04  -0.12  -0.12     0.00  -0.00   0.00    -0.21   0.14  -0.01
  26   1     0.30   0.07  -0.07    -0.00  -0.00   0.00     0.65   0.20  -0.10
  27   1    -0.01  -0.26   0.15     0.00   0.00  -0.00    -0.05  -0.44   0.32
  28   1    -0.43   0.65   0.38    -0.00   0.00   0.00     0.18  -0.30  -0.20
                     73                     74                     75
                        a                      a                      a 
 Frequencies --  3429.1530              3436.5990              3441.4861
 Red. masses --     1.7694                 2.0202                 1.7823
 Frc consts  --     0.0000                 0.0000                 0.0000
 IR Inten    --     0.2036                 0.0228                 0.4289
 Raman Activ --     0.0000                 0.0000                 0.0000
 Depolar     --     0.0000                 0.0000                 0.0000
 Atom AN      X      Y      Z        X      Y      Z        X      Y      Z
   1   1    -0.00   0.00  -0.01     0.00   0.00  -0.00     0.00   0.00  -0.00
   2   8    -0.00  -0.00   0.00    -0.00  -0.00   0.00    -0.00  -0.00   0.00
   3   1     0.01   0.00  -0.01     0.00   0.00  -0.00     0.00   0.00  -0.00
   4   1    -0.58   0.74   0.19    -0.02   0.02   0.01    -0.03   0.03   0.01
   5   8     0.11  -0.18  -0.06     0.00  -0.01  -0.00     0.01  -0.01  -0.00
   6   1     0.13   0.01   0.04     0.00  -0.00   0.00     0.00  -0.00  -0.00
   7   1     0.01  -0.00  -0.06     0.00  -0.00  -0.00     0.00  -0.00  -0.00
   8   8    -0.00  -0.00   0.02    -0.00   0.00   0.00    -0.00   0.00   0.00
   9   1    -0.01   0.00  -0.00     0.00  -0.00   0.00     0.00  -0.00   0.00
  10   1    -0.00  -0.00  -0.00     0.01   0.01   0.01     0.04   0.07   0.05
  11   8     0.00   0.00   0.00    -0.00  -0.00  -0.00    -0.01  -0.02  -0.02
  12   1     0.00  -0.00  -0.00     0.00   0.00  -0.00    -0.01  -0.01   0.01
  13   1     0.00   0.00  -0.00    -0.00  -0.00   0.00    -0.00  -0.00   0.00
  14   8    -0.00  -0.00   0.00     0.00   0.00  -0.00     0.00   0.00  -0.00
  15   1     0.00  -0.00  -0.00     0.00   0.00   0.00    -0.00   0.00   0.00
  16   1    -0.04  -0.06   0.05    -0.00  -0.00   0.00    -0.04  -0.06   0.04
  17   8     0.01   0.01  -0.01     0.00   0.00  -0.00    -0.00   0.00  -0.02
  18   1     0.01   0.01   0.01     0.00   0.00   0.00     0.05   0.05   0.05
  19   1    -0.00  -0.00   0.00     0.00   0.00  -0.00     0.00   0.00   0.00
  20   8    -0.00  -0.00  -0.00    -0.00  -0.00   0.00     0.00   0.00  -0.00
  21   1     0.00   0.00   0.00     0.01   0.00  -0.00    -0.00  -0.00   0.00
  22   1     0.02   0.02   0.04    -0.01  -0.01  -0.02    -0.37  -0.41  -0.77
  23   8    -0.01  -0.00  -0.01     0.00   0.00   0.01     0.11   0.07   0.18
  24   1     0.00  -0.00  -0.00    -0.00   0.00   0.00    -0.05   0.12   0.05
  25   7    -0.00  -0.01   0.00     0.15   0.20  -0.13     0.01  -0.02  -0.00
  26   1     0.01   0.00  -0.00    -0.59  -0.14   0.06    -0.01  -0.01   0.00
  27   1     0.00   0.02  -0.02    -0.01  -0.60   0.43     0.00   0.04  -0.03
  28   1    -0.00   0.00   0.00     0.03   0.00  -0.03    -0.03   0.04   0.03
                     76                     77                     78
                        a                      a                      a 
 Frequencies --  3456.6465              3512.6205              3531.7067
 Red. masses --     1.7822                 1.8477                 1.8328
 Frc consts  --     0.0000                 0.0000                 0.0000
 IR Inten    --     0.1682                 0.2545                 0.1690
 Raman Activ --     0.0000                 0.0000                 0.0000
 Depolar     --     0.0000                 0.0000                 0.0000
 Atom AN      X      Y      Z        X      Y      Z        X      Y      Z
   1   1    -0.00   0.00  -0.00     0.02   0.00  -0.01    -0.00  -0.00   0.00
   2   8     0.00   0.00  -0.00     0.19   0.05  -0.14    -0.00  -0.00   0.00
   3   1    -0.00  -0.00   0.00    -0.77  -0.20   0.56     0.00   0.00  -0.00
   4   1    -0.00   0.00   0.00    -0.01   0.01   0.00    -0.00   0.00   0.00
   5   8     0.00  -0.00   0.00    -0.00  -0.00  -0.00     0.00  -0.00  -0.00
   6   1    -0.00   0.00  -0.00     0.02   0.01   0.01    -0.00  -0.00   0.00
   7   1     0.00   0.00  -0.00     0.00   0.00  -0.00    -0.00  -0.00   0.00
   8   8     0.00  -0.00   0.00    -0.00  -0.00   0.00     0.00  -0.00   0.00
   9   1    -0.00   0.00  -0.00     0.00  -0.00   0.00    -0.00   0.00  -0.00
  10   1     0.41   0.72   0.49    -0.00  -0.00  -0.00    -0.01  -0.01  -0.01
  11   8    -0.09  -0.16  -0.13     0.00   0.00   0.00     0.00   0.00   0.00
  12   1    -0.07  -0.08   0.05     0.00   0.00   0.00     0.00   0.00  -0.00
  13   1     0.01   0.01   0.00     0.00   0.00  -0.00    -0.00  -0.00   0.00
  14   8    -0.00  -0.00  -0.00    -0.00  -0.00  -0.00     0.00  -0.00   0.00
  15   1    -0.00  -0.00   0.00    -0.00   0.00   0.00    -0.00   0.02  -0.00
  16   1     0.02   0.02  -0.01    -0.00  -0.00   0.00    -0.00  -0.00   0.00
  17   8     0.00   0.00   0.01     0.00   0.00  -0.00    -0.00  -0.00  -0.00
  18   1    -0.03  -0.03  -0.04     0.00   0.00   0.00     0.00   0.00   0.00
  19   1    -0.00   0.00   0.00     0.00   0.00   0.00     0.03   0.01   0.02
  20   8     0.00   0.00  -0.00     0.00   0.00  -0.00     0.22   0.08   0.01
  21   1    -0.02  -0.01  -0.00    -0.01  -0.00  -0.00    -0.91  -0.34  -0.05
  22   1     0.04   0.04   0.07    -0.00  -0.00  -0.00     0.00   0.00   0.00
  23   8    -0.01  -0.01  -0.02     0.00  -0.00   0.00    -0.00  -0.00  -0.00
  24   1     0.00  -0.01  -0.00    -0.00   0.00   0.00    -0.00  -0.00  -0.00
  25   7    -0.01   0.00   0.00    -0.00   0.00  -0.00     0.00   0.00  -0.00
  26   1     0.02   0.01  -0.00    -0.00   0.00   0.00    -0.01  -0.00   0.00
  27   1    -0.00   0.00  -0.00    -0.00  -0.00   0.00     0.00  -0.00   0.00
  28   1     0.01  -0.02  -0.01     0.00  -0.00  -0.00    -0.00   0.00   0.00
