
                                 *****************
                                 * O   R   C   A *
                                 *****************

           --- An Ab Initio, DFT and Semiempirical electronic structure package ---

                  #######################################################
                  #                        -***-                        #
                  #          Department of theory and spectroscopy      #
                  #               Directorship: Frank Neese             #
                  #        Max Planck Institute fuer Kohlenforschung    #
                  #                Kaiser Wilhelm Platz 1               #
                  #                 D-45470 Muelheim/Ruhr               #
                  #                      Germany                        #
                  #                                                     #
                  #                  All rights reserved                #
                  #                        -***-                        #
                  #######################################################


                         Program Version 4.2.1 -  RELEASE  -


 With contributions from (in alphabetic order):
   Daniel Aravena         : Magnetic Suceptibility
   Michael Atanasov       : Ab Initio Ligand Field Theory (pilot matlab implementation)
   Alexander A. Auer      : GIAO ZORA, VPT2
   Ute Becker             : Parallelization
   Giovanni Bistoni       : ED, misc. LED, open-shell LED, HFLD
   Martin Brehm           : Molecular dynamics
   Dmytro Bykov           : SCF Hessian
   Vijay G. Chilkuri      : MRCI spin determinant printing, contributions to CSF-ICE
   Dipayan Datta          : RHF DLPNO-CCSD density
   Achintya Kumar Dutta   : EOM-CC, STEOM-CC
   Dmitry Ganyushin       : Spin-Orbit,Spin-Spin,Magnetic field MRCI
   Miquel Garcia          : C-PCM Hessian, Gaussian charge scheme
   Yang Guo               : DLPNO-NEVPT2, CIM, IAO-localization
   Andreas Hansen         : Spin unrestricted coupled pair/coupled cluster methods
   Benjamin Helmich-Paris : CASSCF linear response (MC-RPA)
   Lee Huntington         : MR-EOM, pCC
   Robert Izsak           : Overlap fitted RIJCOSX, COSX-SCS-MP3, EOM
   Christian Kollmar      : KDIIS, OOCD, Brueckner-CCSD(T), CCSD density
   Simone Kossmann        : Meta GGA functionals, TD-DFT gradient, OOMP2, MP2 Hessian
   Martin Krupicka        : AUTO-CI
   Lucas Lang             : DCDCAS
   Dagmar Lenk            : GEPOL surface, SMD
   Dimitrios Liakos       : Extrapolation schemes; Compound Job, initial MDCI parallelization
   Dimitrios Manganas     : Further ROCIS development; embedding schemes
   Dimitrios Pantazis     : SARC Basis sets
   Taras Petrenko         : DFT Hessian,TD-DFT gradient, ASA, ECA, R-Raman, ABS, FL, XAS/XES, NRVS
   Peter Pinski           : DLPNO-MP2, DLPNO-MP2 Gradient
   Christoph Reimann      : Effective Core Potentials
   Marius Retegan         : Local ZFS, SOC
   Christoph Riplinger    : Optimizer, TS searches, QM/MM, DLPNO-CCSD(T), (RO)-DLPNO pert. Triples
   Tobias Risthaus        : Range-separated hybrids, TD-DFT gradient, RPA, STAB
   Michael Roemelt        : Original ROCIS implementation
   Masaaki Saitow         : Open-shell DLPNO-CCSD energy and density
   Barbara Sandhoefer     : DKH picture change effects
   Avijit Sen             : IP-ROCIS
   Kantharuban Sivalingam : CASSCF convergence, NEVPT2, FIC-MRCI
   Bernardo de Souza      : ESD, SOC TD-DFT
   Georgi Stoychev        : AutoAux, RI-MP2 NMR
   Willem Van den Heuvel  : Paramagnetic NMR
   Boris Wezisla          : Elementary symmetry handling
   Frank Wennmohs         : Technical directorship


 We gratefully acknowledge several colleagues who have allowed us to
 interface, adapt or use parts of their codes:
   Stefan Grimme, W. Hujo, H. Kruse,             : VdW corrections, initial TS optimization,
                  C. Bannwarth                     DFT functionals, gCP, sTDA/sTD-DF
   Ed Valeev, F. Pavosevic, A. Kumar             : LibInt (2-el integral package), F12 methods
   Garnet Chan, S. Sharma, J. Yang, R. Olivares  : DMRG
   Ulf Ekstrom                                   : XCFun DFT Library
   Mihaly Kallay                                 : mrcc  (arbitrary order and MRCC methods)
   Andreas Klamt, Michael Diedenhofen            : otool_cosmo (COSMO solvation model)
   Jiri Pittner, Ondrej Demel                    : Mk-CCSD
   Frank Weinhold                                : gennbo (NPA and NBO analysis)
   Christopher J. Cramer and Donald G. Truhlar   : smd solvation model
   Lars Goerigk                                  : TD-DFT with DH, B97 family of functionals
   V. Asgeirsson, H. Jonsson                     : NEB implementation
   FAccTs GmbH                                   : IRC, NEB, NEB-TS, Multilevel, MM, QM/MM, CI optimization
   S Lehtola, MJT Oliveira, MAL Marques          : LibXC Library


 Your calculation uses the libint2 library for the computation of 2-el integrals
 For citations please refer to: http://libint.valeyev.net

 Your ORCA version has been built with support for libXC version: 4.2.3
 For citations please refer to: https://tddft.org/programs/libxc/

 This ORCA versions uses:
   CBLAS   interface :  Fast vector & matrix operations
   LAPACKE interface :  Fast linear algebra routines
   SCALAPACK package :  Parallel linear algebra routines


----- Orbital basis set information -----
Your calculation utilizes the basis: aug-cc-pVTZ 
    H, B-Ne : Obtained from the ccRepo (grant-hill.group.shef.ac.uk/ccrepo) Feb. 2017
              R. A. Kendall, T. H. Dunning, Jr., R. J. Harrison, J. Chem. Phys. 96, 6796 (1992)
         He : Obtained from the ccRepo (grant-hill.group.shef.ac.uk/ccrepo) Feb. 2017
              D. E. Woon, T. H. Dunning, Jr., J. Chem. Phys. 100, 2975 (1994)
  Li-Be, Na : Obtained from the ccRepo (grant-hill.group.shef.ac.uk/ccrepo) Feb. 2017
              B. P. Prascher, D. E. Woon, K. A. Peterson, T. H. Dunning, Jr., A. K. Wilson, Theor. Chem. Acc. 128, 69 (2011)
         Mg : Obtained from the Peterson Research Group Website (tyr0.chem.wsu.edu/~kipeters) Feb. 2017
              B. P. Prascher, D. E. Woon, K. A. Peterson, T. H. Dunning, Jr., A. K. Wilson, Theor. Chem. Acc. 128, 69 (2011)
      Al-Ar : Obtained from the ccRepo (grant-hill.group.shef.ac.uk/ccrepo) Feb. 2017
              D. E. Woon, T. H. Dunning, Jr., J. Chem. Phys. 98, 1358 (1993)
      Sc-Zn : Obtained from the ccRepo (grant-hill.group.shef.ac.uk/ccrepo) Feb. 2017
              N. B. Balabanov, K. A. Peterson, J. Chem. Phys. 123, 064107 (2005)
              N. B. Balabanov, K. A. Peterson, J. Chem. Phys. 125, 074110 (2006)
      Ga-Kr : Obtained from the ccRepo (grant-hill.group.shef.ac.uk/ccrepo) Feb. 2017
              A. K. Wilson, D. E. Woon, K. A. Peterson, T. H. Dunning, Jr., J. Chem. Phys. 110, 7667 (1999)
     Ag, Au : Obtained from the Peterson Research Group Website (tyr0.chem.wsu.edu/~kipeters) Feb. 2017
              K. A. Peterson, C. Puzzarini, Theor. Chem. Acc. 114, 283 (2005)

----- AuxC basis set information -----
Your calculation utilizes the auxiliary basis: aug-cc-pVTZ/C 
  H-He, B-F, Al-Ar, Ga-Kr : Obtained from the EMSL Basis Set Exchange (bse.pnl.gov) Feb. 2017
                            F. Weigend, A. Kohn, C. Hattig, J. Chem. Phys. 116, 3175 (2002)
                   Be, Mg : Obtained from the TURBOMOLE 7.0 basis set library
                            C. Haettig, Phys. Chem. Chem. Phys. 7, 59 (2005)
                       Ne : Obtained from the EMSL Basis Set Exchange (bse.pnl.gov) Feb. 2017
                            C. Haettig, Phys. Chem. Chem. Phys. 7, 59 (2005)
                            F. Weigend, A. Kohn, C. Hattig, J. Chem. Phys. 116, 3175 (2002)
                    Sc-Zn : Obtained from the EMSL Basis Set Exchange (bse.pnl.gov) Feb. 2017
                            J. G. Hill, J. A. Platts, J. Chem. Phys. 128, 044104 (2008)

================================================================================
                                        WARNINGS
                       Please study these warnings very carefully!
================================================================================


WARNING: MDCI localization with Augmented Hessian Foster-Boys
  ===> : Switching off randomization!

WARNING: Post HF methods need fully converged wavefunctions
  ===> : Setting SCFConvForced true
         You can overwrite this default with %scf ConvForced false 


INFO   : the flag for use of LIBINT has been found!

----- Orbital basis set information -----
Your calculation utilizes the basis: aug-cc-pVTZ 
    H, B-Ne : Obtained from the ccRepo (grant-hill.group.shef.ac.uk/ccrepo) Feb. 2017
              R. A. Kendall, T. H. Dunning, Jr., R. J. Harrison, J. Chem. Phys. 96, 6796 (1992)
         He : Obtained from the ccRepo (grant-hill.group.shef.ac.uk/ccrepo) Feb. 2017
              D. E. Woon, T. H. Dunning, Jr., J. Chem. Phys. 100, 2975 (1994)
  Li-Be, Na : Obtained from the ccRepo (grant-hill.group.shef.ac.uk/ccrepo) Feb. 2017
              B. P. Prascher, D. E. Woon, K. A. Peterson, T. H. Dunning, Jr., A. K. Wilson, Theor. Chem. Acc. 128, 69 (2011)
         Mg : Obtained from the Peterson Research Group Website (tyr0.chem.wsu.edu/~kipeters) Feb. 2017
              B. P. Prascher, D. E. Woon, K. A. Peterson, T. H. Dunning, Jr., A. K. Wilson, Theor. Chem. Acc. 128, 69 (2011)
      Al-Ar : Obtained from the ccRepo (grant-hill.group.shef.ac.uk/ccrepo) Feb. 2017
              D. E. Woon, T. H. Dunning, Jr., J. Chem. Phys. 98, 1358 (1993)
      Sc-Zn : Obtained from the ccRepo (grant-hill.group.shef.ac.uk/ccrepo) Feb. 2017
              N. B. Balabanov, K. A. Peterson, J. Chem. Phys. 123, 064107 (2005)
              N. B. Balabanov, K. A. Peterson, J. Chem. Phys. 125, 074110 (2006)
      Ga-Kr : Obtained from the ccRepo (grant-hill.group.shef.ac.uk/ccrepo) Feb. 2017
              A. K. Wilson, D. E. Woon, K. A. Peterson, T. H. Dunning, Jr., J. Chem. Phys. 110, 7667 (1999)
     Ag, Au : Obtained from the Peterson Research Group Website (tyr0.chem.wsu.edu/~kipeters) Feb. 2017
              K. A. Peterson, C. Puzzarini, Theor. Chem. Acc. 114, 283 (2005)

----- AuxC basis set information -----
Your calculation utilizes the auxiliary basis: aug-cc-pVTZ/C 
  H-He, B-F, Al-Ar, Ga-Kr : Obtained from the EMSL Basis Set Exchange (bse.pnl.gov) Feb. 2017
                            F. Weigend, A. Kohn, C. Hattig, J. Chem. Phys. 116, 3175 (2002)
                   Be, Mg : Obtained from the TURBOMOLE 7.0 basis set library
                            C. Haettig, Phys. Chem. Chem. Phys. 7, 59 (2005)
                       Ne : Obtained from the EMSL Basis Set Exchange (bse.pnl.gov) Feb. 2017
                            C. Haettig, Phys. Chem. Chem. Phys. 7, 59 (2005)
                            F. Weigend, A. Kohn, C. Hattig, J. Chem. Phys. 116, 3175 (2002)
                    Sc-Zn : Obtained from the EMSL Basis Set Exchange (bse.pnl.gov) Feb. 2017
                            J. G. Hill, J. A. Platts, J. Chem. Phys. 128, 044104 (2008)

================================================================================
                                        WARNINGS
                       Please study these warnings very carefully!
================================================================================


WARNING: MOInp is set but Guess=PModel. MOInp will be ignored!
         To read the initial guess from a file you must also specify
         'MORead' in the simple input or 'Guess MORead' in the %scf block


WARNING: MDCI localization with Augmented Hessian Foster-Boys
  ===> : Switching off randomization!

INFO   : the flag for use of LIBINT has been found!

----- Orbital basis set information -----
Your calculation utilizes the basis: aug-cc-pVTZ 
    H, B-Ne : Obtained from the ccRepo (grant-hill.group.shef.ac.uk/ccrepo) Feb. 2017
              R. A. Kendall, T. H. Dunning, Jr., R. J. Harrison, J. Chem. Phys. 96, 6796 (1992)
         He : Obtained from the ccRepo (grant-hill.group.shef.ac.uk/ccrepo) Feb. 2017
              D. E. Woon, T. H. Dunning, Jr., J. Chem. Phys. 100, 2975 (1994)
  Li-Be, Na : Obtained from the ccRepo (grant-hill.group.shef.ac.uk/ccrepo) Feb. 2017
              B. P. Prascher, D. E. Woon, K. A. Peterson, T. H. Dunning, Jr., A. K. Wilson, Theor. Chem. Acc. 128, 69 (2011)
         Mg : Obtained from the Peterson Research Group Website (tyr0.chem.wsu.edu/~kipeters) Feb. 2017
              B. P. Prascher, D. E. Woon, K. A. Peterson, T. H. Dunning, Jr., A. K. Wilson, Theor. Chem. Acc. 128, 69 (2011)
      Al-Ar : Obtained from the ccRepo (grant-hill.group.shef.ac.uk/ccrepo) Feb. 2017
              D. E. Woon, T. H. Dunning, Jr., J. Chem. Phys. 98, 1358 (1993)
      Sc-Zn : Obtained from the ccRepo (grant-hill.group.shef.ac.uk/ccrepo) Feb. 2017
              N. B. Balabanov, K. A. Peterson, J. Chem. Phys. 123, 064107 (2005)
              N. B. Balabanov, K. A. Peterson, J. Chem. Phys. 125, 074110 (2006)
      Ga-Kr : Obtained from the ccRepo (grant-hill.group.shef.ac.uk/ccrepo) Feb. 2017
              A. K. Wilson, D. E. Woon, K. A. Peterson, T. H. Dunning, Jr., J. Chem. Phys. 110, 7667 (1999)
     Ag, Au : Obtained from the Peterson Research Group Website (tyr0.chem.wsu.edu/~kipeters) Feb. 2017
              K. A. Peterson, C. Puzzarini, Theor. Chem. Acc. 114, 283 (2005)

----- AuxC basis set information -----
Your calculation utilizes the auxiliary basis: aug-cc-pVTZ/C 
  H-He, B-F, Al-Ar, Ga-Kr : Obtained from the EMSL Basis Set Exchange (bse.pnl.gov) Feb. 2017
                            F. Weigend, A. Kohn, C. Hattig, J. Chem. Phys. 116, 3175 (2002)
                   Be, Mg : Obtained from the TURBOMOLE 7.0 basis set library
                            C. Haettig, Phys. Chem. Chem. Phys. 7, 59 (2005)
                       Ne : Obtained from the EMSL Basis Set Exchange (bse.pnl.gov) Feb. 2017
                            C. Haettig, Phys. Chem. Chem. Phys. 7, 59 (2005)
                            F. Weigend, A. Kohn, C. Hattig, J. Chem. Phys. 116, 3175 (2002)
                    Sc-Zn : Obtained from the EMSL Basis Set Exchange (bse.pnl.gov) Feb. 2017
                            J. G. Hill, J. A. Platts, J. Chem. Phys. 128, 044104 (2008)

================================================================================
                                        WARNINGS
                       Please study these warnings very carefully!
================================================================================


WARNING: MOInp is set but Guess=PModel. MOInp will be ignored!
         To read the initial guess from a file you must also specify
         'MORead' in the simple input or 'Guess MORead' in the %scf block


WARNING: MDCI localization with Augmented Hessian Foster-Boys
  ===> : Switching off randomization!

INFO   : the flag for use of LIBINT has been found!

----- Orbital basis set information -----
Your calculation utilizes the basis: aug-cc-pVTZ 
    H, B-Ne : Obtained from the ccRepo (grant-hill.group.shef.ac.uk/ccrepo) Feb. 2017
              R. A. Kendall, T. H. Dunning, Jr., R. J. Harrison, J. Chem. Phys. 96, 6796 (1992)
         He : Obtained from the ccRepo (grant-hill.group.shef.ac.uk/ccrepo) Feb. 2017
              D. E. Woon, T. H. Dunning, Jr., J. Chem. Phys. 100, 2975 (1994)
  Li-Be, Na : Obtained from the ccRepo (grant-hill.group.shef.ac.uk/ccrepo) Feb. 2017
              B. P. Prascher, D. E. Woon, K. A. Peterson, T. H. Dunning, Jr., A. K. Wilson, Theor. Chem. Acc. 128, 69 (2011)
         Mg : Obtained from the Peterson Research Group Website (tyr0.chem.wsu.edu/~kipeters) Feb. 2017
              B. P. Prascher, D. E. Woon, K. A. Peterson, T. H. Dunning, Jr., A. K. Wilson, Theor. Chem. Acc. 128, 69 (2011)
      Al-Ar : Obtained from the ccRepo (grant-hill.group.shef.ac.uk/ccrepo) Feb. 2017
              D. E. Woon, T. H. Dunning, Jr., J. Chem. Phys. 98, 1358 (1993)
      Sc-Zn : Obtained from the ccRepo (grant-hill.group.shef.ac.uk/ccrepo) Feb. 2017
              N. B. Balabanov, K. A. Peterson, J. Chem. Phys. 123, 064107 (2005)
              N. B. Balabanov, K. A. Peterson, J. Chem. Phys. 125, 074110 (2006)
      Ga-Kr : Obtained from the ccRepo (grant-hill.group.shef.ac.uk/ccrepo) Feb. 2017
              A. K. Wilson, D. E. Woon, K. A. Peterson, T. H. Dunning, Jr., J. Chem. Phys. 110, 7667 (1999)
     Ag, Au : Obtained from the Peterson Research Group Website (tyr0.chem.wsu.edu/~kipeters) Feb. 2017
              K. A. Peterson, C. Puzzarini, Theor. Chem. Acc. 114, 283 (2005)

----- AuxC basis set information -----
Your calculation utilizes the auxiliary basis: aug-cc-pVTZ/C 
  H-He, B-F, Al-Ar, Ga-Kr : Obtained from the EMSL Basis Set Exchange (bse.pnl.gov) Feb. 2017
                            F. Weigend, A. Kohn, C. Hattig, J. Chem. Phys. 116, 3175 (2002)
                   Be, Mg : Obtained from the TURBOMOLE 7.0 basis set library
                            C. Haettig, Phys. Chem. Chem. Phys. 7, 59 (2005)
                       Ne : Obtained from the EMSL Basis Set Exchange (bse.pnl.gov) Feb. 2017
                            C. Haettig, Phys. Chem. Chem. Phys. 7, 59 (2005)
                            F. Weigend, A. Kohn, C. Hattig, J. Chem. Phys. 116, 3175 (2002)
                    Sc-Zn : Obtained from the EMSL Basis Set Exchange (bse.pnl.gov) Feb. 2017
                            J. G. Hill, J. A. Platts, J. Chem. Phys. 128, 044104 (2008)

================================================================================
                                        WARNINGS
                       Please study these warnings very carefully!
================================================================================


WARNING: MOInp is set but Guess=PModel. MOInp will be ignored!
         To read the initial guess from a file you must also specify
         'MORead' in the simple input or 'Guess MORead' in the %scf block


WARNING: MDCI localization with Augmented Hessian Foster-Boys
  ===> : Switching off randomization!

INFO   : the flag for use of LIBINT has been found!

----- Orbital basis set information -----
Your calculation utilizes the basis: aug-cc-pVTZ 
    H, B-Ne : Obtained from the ccRepo (grant-hill.group.shef.ac.uk/ccrepo) Feb. 2017
              R. A. Kendall, T. H. Dunning, Jr., R. J. Harrison, J. Chem. Phys. 96, 6796 (1992)
         He : Obtained from the ccRepo (grant-hill.group.shef.ac.uk/ccrepo) Feb. 2017
              D. E. Woon, T. H. Dunning, Jr., J. Chem. Phys. 100, 2975 (1994)
  Li-Be, Na : Obtained from the ccRepo (grant-hill.group.shef.ac.uk/ccrepo) Feb. 2017
              B. P. Prascher, D. E. Woon, K. A. Peterson, T. H. Dunning, Jr., A. K. Wilson, Theor. Chem. Acc. 128, 69 (2011)
         Mg : Obtained from the Peterson Research Group Website (tyr0.chem.wsu.edu/~kipeters) Feb. 2017
              B. P. Prascher, D. E. Woon, K. A. Peterson, T. H. Dunning, Jr., A. K. Wilson, Theor. Chem. Acc. 128, 69 (2011)
      Al-Ar : Obtained from the ccRepo (grant-hill.group.shef.ac.uk/ccrepo) Feb. 2017
              D. E. Woon, T. H. Dunning, Jr., J. Chem. Phys. 98, 1358 (1993)
      Sc-Zn : Obtained from the ccRepo (grant-hill.group.shef.ac.uk/ccrepo) Feb. 2017
              N. B. Balabanov, K. A. Peterson, J. Chem. Phys. 123, 064107 (2005)
              N. B. Balabanov, K. A. Peterson, J. Chem. Phys. 125, 074110 (2006)
      Ga-Kr : Obtained from the ccRepo (grant-hill.group.shef.ac.uk/ccrepo) Feb. 2017
              A. K. Wilson, D. E. Woon, K. A. Peterson, T. H. Dunning, Jr., J. Chem. Phys. 110, 7667 (1999)
     Ag, Au : Obtained from the Peterson Research Group Website (tyr0.chem.wsu.edu/~kipeters) Feb. 2017
              K. A. Peterson, C. Puzzarini, Theor. Chem. Acc. 114, 283 (2005)

----- AuxC basis set information -----
Your calculation utilizes the auxiliary basis: aug-cc-pVTZ/C 
  H-He, B-F, Al-Ar, Ga-Kr : Obtained from the EMSL Basis Set Exchange (bse.pnl.gov) Feb. 2017
                            F. Weigend, A. Kohn, C. Hattig, J. Chem. Phys. 116, 3175 (2002)
                   Be, Mg : Obtained from the TURBOMOLE 7.0 basis set library
                            C. Haettig, Phys. Chem. Chem. Phys. 7, 59 (2005)
                       Ne : Obtained from the EMSL Basis Set Exchange (bse.pnl.gov) Feb. 2017
                            C. Haettig, Phys. Chem. Chem. Phys. 7, 59 (2005)
                            F. Weigend, A. Kohn, C. Hattig, J. Chem. Phys. 116, 3175 (2002)
                    Sc-Zn : Obtained from the EMSL Basis Set Exchange (bse.pnl.gov) Feb. 2017
                            J. G. Hill, J. A. Platts, J. Chem. Phys. 128, 044104 (2008)

================================================================================
                                        WARNINGS
                       Please study these warnings very carefully!
================================================================================


WARNING: MOInp is set but Guess=PModel. MOInp will be ignored!
         To read the initial guess from a file you must also specify
         'MORead' in the simple input or 'Guess MORead' in the %scf block


WARNING: MDCI localization with Augmented Hessian Foster-Boys
  ===> : Switching off randomization!

INFO   : the flag for use of LIBINT has been found!

================================================================================
                                       INPUT FILE
================================================================================
NAME = DLPNO_CP30.inp
|  1> #------------------------------------------------------
|  2> # After the Orca calculation you will get two inter-
|  3> # action energies at the end of the output file. The
|  4> # difference is the negative BSSE.
|  5> #
|  6> # The script will set the orbital guess PModel for 
|  7> # jobs 2-5 since Orca will try to use the .gbw-files of
|  8> # the earlier calculations which does not work for jobs
|  9> # 2 and 3 and does not help for jobs 4 and 5.
| 10> #------------------------------------------------------
| 11> #
| 12> #-------------------------
| 13> #     First the dimer
| 14> #-------------------------
| 15> 
| 16> %id "dimer"
| 17> ! DLPNO-CCSD(T) aug-cc-pVTZ aug-cc-pVTZ/C TightPNO
| 18> %maxcore 2000
| 19> %pal
| 20> nprocs 10
| 21> end
| 22> 
| 23> * xyz 0 1
| 24> H    -4.032191     1.098451     1.173608 
| 25> O    -3.370558     1.764930     0.874455 
| 26> H    -3.323649     2.459874     1.547512 
| 27> H    -1.574002     1.352240    -1.340254 
| 28> O    -1.154315     1.089873    -0.499249 
| 29> H    -1.889127     1.257570     0.140384 
| 30> H    -0.131786     2.486413    -0.165968 
| 31> O     0.558513     3.156067     0.057796 
| 32> H     0.836695     3.487372    -0.820038 
| 33> H     2.578070    -1.391273    -1.706777 
| 34> O     1.642568    -1.123429    -1.678447 
| 35> H     1.714592    -0.204509    -1.338181 
| 36> H     1.838960     1.913011    -0.076878 
| 37> O     2.438024     1.258958    -0.497195 
| 38> H     2.839374     0.690914     0.211344 
| 39> H    -1.092670    -0.635047    -0.861770 
| 40> O    -0.979992    -1.588273    -1.082861 
| 41> H    -0.030808    -1.621038    -1.331609 
| 42> H     2.737675    -1.142291     1.280713 
| 43> O     3.540209    -0.582465     1.107416 
| 44> H     4.037450    -1.050467     0.421671 
| 45> H    -2.674630    -2.059703    -0.112586 
| 46> O    -3.625795    -2.189787     0.040638 
| 47> H    -4.033704    -1.837860    -0.779805 
| 48> N     1.084975    -1.872226     1.690367 
| 49> H     0.695291    -1.357888     2.475194 
| 50> H     1.087598    -2.852390     1.956626 
| 51> H     0.432792    -1.774787     0.913819 
| 52> *
| 53> 
| 54> #--------------------------
| 55> #   Now the fragments at
| 56> #      dimer-geometry 
| 57> #-------------------------
| 58> 
| 59> $new_job
| 60> %id "fragment"
| 61> %scf guess PModel end
| 62> ! DLPNO-CCSD(T) aug-cc-pVTZ aug-cc-pVTZ/C TightPNO
| 63> %maxcore 2000
| 64> %pal
| 65> nprocs 10
| 66> end
| 67> 
| 68> * xyz 0 1
| 69> H    -4.032191     1.098451     1.173608 
| 70> O    -3.370558     1.764930     0.874455 
| 71> H    -3.323649     2.459874     1.547512 
| 72> H    -1.574002     1.352240    -1.340254 
| 73> O    -1.154315     1.089873    -0.499249 
| 74> H    -1.889127     1.257570     0.140384 
| 75> H    -0.131786     2.486413    -0.165968 
| 76> O     0.558513     3.156067     0.057796 
| 77> H     0.836695     3.487372    -0.820038 
| 78> H     2.578070    -1.391273    -1.706777 
| 79> O     1.642568    -1.123429    -1.678447 
| 80> H     1.714592    -0.204509    -1.338181 
| 81> H     1.838960     1.913011    -0.076878 
| 82> O     2.438024     1.258958    -0.497195 
| 83> H     2.839374     0.690914     0.211344 
| 84> H    -1.092670    -0.635047    -0.861770 
| 85> O    -0.979992    -1.588273    -1.082861 
| 86> H    -0.030808    -1.621038    -1.331609 
| 87> H     2.737675    -1.142291     1.280713 
| 88> O     3.540209    -0.582465     1.107416 
| 89> H     4.037450    -1.050467     0.421671 
| 90> H    -2.674630    -2.059703    -0.112586 
| 91> O    -3.625795    -2.189787     0.040638 
| 92> H    -4.033704    -1.837860    -0.779805 
| 93> *
| 94> 
| 95> $new_job
| 96> %id "fragment"
| 97> %scf guess PModel end
| 98> ! DLPNO-CCSD(T) aug-cc-pVTZ aug-cc-pVTZ/C TightPNO
| 99> %maxcore 2000
|100> %pal
|101> nprocs 10
|102> end
|103> 
|104> * xyz 0 1
|105> N     1.084975    -1.872226     1.690367 
|106> H     0.695291    -1.357888     2.475194 
|107> H     1.087598    -2.852390     1.956626 
|108> H     0.432792    -1.774787     0.913819 
|109> *
|110> 
|111> #--------------------------
|112> #   Now the fragments at
|113> #   dimer-geometry with  
|114> #     the dimer-basis
|115> #-------------------------
|116> 
|117> $new_job
|118> %id "ghost"
|119> %scf guess PModel end
|120> ! DLPNO-CCSD(T) aug-cc-pVTZ aug-cc-pVTZ/C TightPNO
|121> %maxcore 2000
|122> %pal
|123> nprocs 10
|124> end
|125> 
|126> * xyz 0 1
|127> H         -4.032191     1.098451     1.173608 
|128> O         -3.370558     1.764930     0.874455 
|129> H         -3.323649     2.459874     1.547512 
|130> H         -1.574002     1.352240    -1.340254 
|131> O         -1.154315     1.089873    -0.499249 
|132> H         -1.889127     1.257570     0.140384 
|133> H         -0.131786     2.486413    -0.165968 
|134> O          0.558513     3.156067     0.057796 
|135> H          0.836695     3.487372    -0.820038 
|136> H          2.578070    -1.391273    -1.706777 
|137> O          1.642568    -1.123429    -1.678447 
|138> H          1.714592    -0.204509    -1.338181 
|139> H          1.838960     1.913011    -0.076878 
|140> O          2.438024     1.258958    -0.497195 
|141> H          2.839374     0.690914     0.211344 
|142> H         -1.092670    -0.635047    -0.861770 
|143> O         -0.979992    -1.588273    -1.082861 
|144> H         -0.030808    -1.621038    -1.331609 
|145> H          2.737675    -1.142291     1.280713 
|146> O          3.540209    -0.582465     1.107416 
|147> H          4.037450    -1.050467     0.421671 
|148> H         -2.674630    -2.059703    -0.112586 
|149> O         -3.625795    -2.189787     0.040638 
|150> H         -4.033704    -1.837860    -0.779805 
|151> N :        1.084975    -1.872226     1.690367 
|152> H :        0.695291    -1.357888     2.475194 
|153> H :        1.087598    -2.852390     1.956626 
|154> H :        0.432792    -1.774787     0.913819 
|155> *
|156> 
|157> $new_job
|158> %id "ghost"
|159> %scf guess PModel end
|160> ! DLPNO-CCSD(T) aug-cc-pVTZ aug-cc-pVTZ/C TightPNO
|161> %maxcore 2000
|162> %pal
|163> nprocs 10
|164> end
|165> 
|166> * xyz 0 1
|167> H :       -4.032191     1.098451     1.173608 
|168> O :       -3.370558     1.764930     0.874455 
|169> H :       -3.323649     2.459874     1.547512 
|170> H :       -1.574002     1.352240    -1.340254 
|171> O :       -1.154315     1.089873    -0.499249 
|172> H :       -1.889127     1.257570     0.140384 
|173> H :       -0.131786     2.486413    -0.165968 
|174> O :        0.558513     3.156067     0.057796 
|175> H :        0.836695     3.487372    -0.820038 
|176> H :        2.578070    -1.391273    -1.706777 
|177> O :        1.642568    -1.123429    -1.678447 
|178> H :        1.714592    -0.204509    -1.338181 
|179> H :        1.838960     1.913011    -0.076878 
|180> O :        2.438024     1.258958    -0.497195 
|181> H :        2.839374     0.690914     0.211344 
|182> H :       -1.092670    -0.635047    -0.861770 
|183> O :       -0.979992    -1.588273    -1.082861 
|184> H :       -0.030808    -1.621038    -1.331609 
|185> H :        2.737675    -1.142291     1.280713 
|186> O :        3.540209    -0.582465     1.107416 
|187> H :        4.037450    -1.050467     0.421671 
|188> H :       -2.674630    -2.059703    -0.112586 
|189> O :       -3.625795    -2.189787     0.040638 
|190> H :       -4.033704    -1.837860    -0.779805 
|191> N          1.084975    -1.872226     1.690367 
|192> H          0.695291    -1.357888     2.475194 
|193> H          1.087598    -2.852390     1.956626 
|194> H          0.432792    -1.774787     0.913819 
|195> *
|196> 
|197> 
|198>                          ****END OF INPUT****
================================================================================


                 $$$$$$$$$$$$$$$$$$$$$$$$$$$$$$$$$$$$$$$$$$$$$$ 
                 $ THERE ARE  5 JOBS TO BE PROCESSED THIS RUN $
                 $$$$$$$$$$$$$$$$$$$$$$$$$$$$$$$$$$$$$$$$$$$$$$ 




                 $$$$$$$$$$$$$$$$  JOB NUMBER  1 $$$$$$$$$$$$$$


                       ****************************
                       * Single Point Calculation *
                       ****************************

---------------------------------
CARTESIAN COORDINATES (ANGSTROEM)
---------------------------------
  H     -4.032191    1.098451    1.173608
  O     -3.370558    1.764930    0.874455
  H     -3.323649    2.459874    1.547512
  H     -1.574002    1.352240   -1.340254
  O     -1.154315    1.089873   -0.499249
  H     -1.889127    1.257570    0.140384
  H     -0.131786    2.486413   -0.165968
  O      0.558513    3.156067    0.057796
  H      0.836695    3.487372   -0.820038
  H      2.578070   -1.391273   -1.706777
  O      1.642568   -1.123429   -1.678447
  H      1.714592   -0.204509   -1.338181
  H      1.838960    1.913011   -0.076878
  O      2.438024    1.258958   -0.497195
  H      2.839374    0.690914    0.211344
  H     -1.092670   -0.635047   -0.861770
  O     -0.979992   -1.588273   -1.082861
  H     -0.030808   -1.621038   -1.331609
  H      2.737675   -1.142291    1.280713
  O      3.540209   -0.582465    1.107416
  H      4.037450   -1.050467    0.421671
  H     -2.674630   -2.059703   -0.112586
  O     -3.625795   -2.189787    0.040638
  H     -4.033704   -1.837860   -0.779805
  N      1.084975   -1.872226    1.690367
  H      0.695291   -1.357888    2.475194
  H      1.087598   -2.852390    1.956626
  H      0.432792   -1.774787    0.913819

----------------------------
CARTESIAN COORDINATES (A.U.)
----------------------------
  NO LB      ZA    FRAG     MASS         X           Y           Z
   0 H     1.0000    0     1.008   -7.619737    2.075772    2.217798
   1 O     8.0000    0    15.999   -6.369432    3.335234    1.652480
   2 H     1.0000    0     1.008   -6.280786    4.648488    2.924374
   3 H     1.0000    0     1.008   -2.974433    2.555363   -2.532713
   4 O     8.0000    0    15.999   -2.181339    2.059561   -0.943444
   5 H     1.0000    0     1.008   -3.569933    2.376463    0.265287
   6 H     1.0000    0     1.008   -0.249039    4.698640   -0.313634
   7 O     8.0000    0    15.999    1.055437    5.964102    0.109219
   8 H     1.0000    0     1.008    1.581124    6.590178   -1.549647
   9 H     1.0000    0     1.008    4.871846   -2.629125   -3.225341
  10 O     8.0000    0    15.999    3.104004   -2.122973   -3.171805
  11 H     1.0000    0     1.008    3.240109   -0.386466   -2.528796
  12 H     1.0000    0     1.008    3.475131    3.615067   -0.145278
  13 O     8.0000    0    15.999    4.607198    2.379086   -0.939562
  14 H     1.0000    0     1.008    5.365639    1.305638    0.399382
  15 H     1.0000    0     1.008   -2.064847   -1.200065   -1.628509
  16 O     8.0000    0    15.999   -1.851916   -3.001401   -2.046311
  17 H     1.0000    0     1.008   -0.058219   -3.063318   -2.516376
  18 H     1.0000    0     1.008    5.173456   -2.158617    2.420197
  19 O     8.0000    0    15.999    6.690025   -1.100699    2.092713
  20 H     1.0000    0     1.008    7.629675   -1.985095    0.796843
  21 H     1.0000    0     1.008   -5.054318   -3.892275   -0.212757
  22 O     8.0000    0    15.999   -6.851760   -4.138098    0.076795
  23 H     1.0000    0     1.008   -7.622596   -3.473052   -1.473618
  24 N     7.0000    0    14.007    2.050306   -3.537994    3.194331
  25 H     1.0000    0     1.008    1.313910   -2.566036    4.677439
  26 H     1.0000    0     1.008    2.055262   -5.390236    3.697487
  27 H     1.0000    0     1.008    0.817858   -3.353861    1.726868

--------------------------------
INTERNAL COORDINATES (ANGSTROEM)
--------------------------------
 H      0   0   0     0.000000000000     0.00000000     0.00000000
 O      1   0   0     0.985619095563     0.00000000     0.00000000
 H      2   1   0     0.968583162494   107.86442314     0.00000000
 H      2   1   3     2.881468801135   123.70904951   168.88462071
 O      4   2   1     0.975839654187    69.16063236   266.84771021
 H      5   4   2     0.988534943157   101.08963338     1.84444926
 H      5   4   2     1.762658716939   101.50339416   259.05805675
 O      7   5   4     0.987430765580   170.30104494   224.84504359
 H      8   7   5     0.978642304269   103.00494627   104.71467719
 H      5   4   2     4.641649182384   105.38726507   165.46868524
 O     10   5   4     0.973502434121    21.97299486   306.80269113
 H     11  10   5     0.982538739049   101.35895998    18.22931231
 H      8   7   9     1.789656342771    90.69186952   271.94210661
 O     13   8   7     0.981493445416   158.71354764    68.41702975
 H     14  13   8     0.992866216042   108.80676954   194.62300182
 H      5   4   2     1.763680976783    95.78751116   112.49330346
 O     16   5   4     0.984996126409   175.28289309   100.88265083
 H     17  16   5     0.981783773845   101.52304569     0.47631893
 H     15  14  13     2.124743117835   146.45378626    96.75410970
 O     19  15  14     0.993729249666    52.23065032   153.27537141
 H     20  19  15     0.967739990447   105.43169954   254.86158175
 H     17  16  18     2.008849862874    91.27162174   162.55590387
 O     22  17  16     0.972169891766   158.88939709    83.86049816
 H     23  22  17     0.981513668707   103.11398895   354.16138517
 N     19  15  14     1.852576258603   119.59986120   324.06857246
 H     25  19  15     1.016046562924   108.27037160   282.91146173
 H     25  19  15     1.015688043696   115.84218226   163.19363186
 H     25  19  15     1.018756016185   111.39942254    40.48366579

---------------------------
INTERNAL COORDINATES (A.U.)
---------------------------
 H      0   0   0     0.000000000000     0.00000000     0.00000000
 O      1   0   0     1.862550162978     0.00000000     0.00000000
 H      2   1   0     1.830356915040   107.86442314     0.00000000
 H      2   1   3     5.445186897584   123.70904951   168.88462071
 O      4   2   1     1.844069697033    69.16063236   266.84771021
 H      5   4   2     1.868060316378   101.08963338     1.84444926
 H      5   4   2     3.330942242584   101.50339416   259.05805675
 O      7   5   4     1.865973723154   170.30104494   224.84504359
 H      8   7   5     1.849365938138   103.00494627   104.71467719
 H      5   4   2     8.771445764445   105.38726507   165.46868524
 O     10   5   4     1.839652991195    21.97299486   306.80269113
 H     11  10   5     1.856729132771   101.35895998    18.22931231
 H      8   7   9     3.381960361673    90.69186952   271.94210661
 O     13   8   7     1.854753814074   158.71354764    68.41702975
 H     14  13   8     1.876245235942   108.80676954   194.62300182
 H      5   4   2     3.332874033726    95.78751116   112.49330346
 O     16   5   4     1.861372921887   175.28289309   100.88265083
 H     17  16   5     1.855302455294   101.52304569     0.47631893
 H     15  14  13     4.015182597642   146.45378626    96.75410970
 O     19  15  14     1.877876133135    52.23065032   153.27537141
 H     20  19  15     1.828763550788   105.43169954   254.86158175
 H     17  16  18     3.796176084997    91.27162174   162.55590387
 O     22  17  16     1.837134851082   158.88939709    83.86049816
 H     23  22  17     1.854792030557   103.11398895   354.16138517
 N     19  15  14     3.500861770965   119.59986120   324.06857246
 H     25  19  15     1.920049743238   108.27037160   282.91146173
 H     25  19  15     1.919372240083   115.84218226   163.19363186
 H     25  19  15     1.925169867875   111.39942254    40.48366579

---------------------
BASIS SET INFORMATION
---------------------
There are 3 groups of distinct atoms

 Group   1 Type H   : 6s3p2d contracted to 4s3p2d pattern {3111/111/11}
 Group   2 Type O   : 19s6p3d2f contracted to 5s4p3d2f pattern {88111/3111/111/11}
 Group   3 Type N   : 19s6p3d2f contracted to 5s4p3d2f pattern {88111/3111/111/11}

Atom   0H    basis set group =>   1
Atom   1O    basis set group =>   2
Atom   2H    basis set group =>   1
Atom   3H    basis set group =>   1
Atom   4O    basis set group =>   2
Atom   5H    basis set group =>   1
Atom   6H    basis set group =>   1
Atom   7O    basis set group =>   2
Atom   8H    basis set group =>   1
Atom   9H    basis set group =>   1
Atom  10O    basis set group =>   2
Atom  11H    basis set group =>   1
Atom  12H    basis set group =>   1
Atom  13O    basis set group =>   2
Atom  14H    basis set group =>   1
Atom  15H    basis set group =>   1
Atom  16O    basis set group =>   2
Atom  17H    basis set group =>   1
Atom  18H    basis set group =>   1
Atom  19O    basis set group =>   2
Atom  20H    basis set group =>   1
Atom  21H    basis set group =>   1
Atom  22O    basis set group =>   2
Atom  23H    basis set group =>   1
Atom  24N    basis set group =>   3
Atom  25H    basis set group =>   1
Atom  26H    basis set group =>   1
Atom  27H    basis set group =>   1
---------------------------------
AUXILIARY/C BASIS SET INFORMATION
---------------------------------
There are 3 groups of distinct atoms

 Group   1 Type H   : 5s4p3d2f contracted to 5s4p3d2f pattern {11111/1111/111/11}
 Group   2 Type O   : 9s7p6d4f2g contracted to 9s7p6d4f2g pattern {111111111/1111111/111111/1111/11}
 Group   3 Type N   : 9s7p6d4f2g contracted to 9s7p6d4f2g pattern {111111111/1111111/111111/1111/11}

Atom   0H    basis set group =>   1
Atom   1O    basis set group =>   2
Atom   2H    basis set group =>   1
Atom   3H    basis set group =>   1
Atom   4O    basis set group =>   2
Atom   5H    basis set group =>   1
Atom   6H    basis set group =>   1
Atom   7O    basis set group =>   2
Atom   8H    basis set group =>   1
Atom   9H    basis set group =>   1
Atom  10O    basis set group =>   2
Atom  11H    basis set group =>   1
Atom  12H    basis set group =>   1
Atom  13O    basis set group =>   2
Atom  14H    basis set group =>   1
Atom  15H    basis set group =>   1
Atom  16O    basis set group =>   2
Atom  17H    basis set group =>   1
Atom  18H    basis set group =>   1
Atom  19O    basis set group =>   2
Atom  20H    basis set group =>   1
Atom  21H    basis set group =>   1
Atom  22O    basis set group =>   2
Atom  23H    basis set group =>   1
Atom  24N    basis set group =>   3
Atom  25H    basis set group =>   1
Atom  26H    basis set group =>   1
Atom  27H    basis set group =>   1


           ************************************************************
           *        Program running with 10 parallel MPI-processes    *
           *              working on a common directory               *
           ************************************************************
------------------------------------------------------------------------------
                           ORCA GTO INTEGRAL CALCULATION
------------------------------------------------------------------------------

                         BASIS SET STATISTICS AND STARTUP INFO

 # of primitive gaussian shells          ...  479
 # of primitive gaussian functions       ... 1069
 # of contracted shells                  ...  297
 # of contracted basis functions         ...  851
 Highest angular momentum                ...    3
 Maximum contraction depth               ...    8
 Integral package used                   ... LIBINT
 Integral threshhold            Thresh   ...  1.000e-10
 Primitive cut-off              TCut     ...  1.000e-11


------------------------------ INTEGRAL EVALUATION ----------------------------


 * One electron integrals 
 Pre-screening matrix                    ... done
 Shell pair data                         ... done (   0.016 sec)



           ************************************************************
           *        Program running with 10 parallel MPI-processes    *
           *              working on a common directory               *
           ************************************************************
-------------------------------------------------------------------------------
                                 ORCA SCF
-------------------------------------------------------------------------------

------------
SCF SETTINGS
------------
Hamiltonian:
 Ab initio Hamiltonian  Method          .... Hartree-Fock(GTOs)


General Settings:
 Integral files         IntName         .... DLPNO_CP30
 Hartree-Fock type      HFTyp           .... RHF
 Total Charge           Charge          ....    0
 Multiplicity           Mult            ....    1
 Number of Electrons    NEL             ....   90
 Basis Dimension        Dim             ....  851
 Nuclear Repulsion      ENuc            ....    559.3074774243 Eh

Convergence Acceleration:
 DIIS                   CNVDIIS         .... on
   Start iteration      DIISMaxIt       ....    12
   Startup error        DIISStart       ....  0.200000
   # of expansion vecs  DIISMaxEq       ....     5
   Bias factor          DIISBfac        ....   1.050
   Max. coefficient     DIISMaxC        ....  10.000
 Newton-Raphson         CNVNR           .... off
 SOSCF                  CNVSOSCF        .... on
   Start iteration      SOSCFMaxIt      ....   150
   Startup grad/error   SOSCFStart      ....  0.003300
 Level Shifting         CNVShift        .... on
   Level shift para.    LevelShift      ....    0.2500
   Turn off err/grad.   ShiftErr        ....    0.0010
 Zerner damping         CNVZerner       .... off
 Static damping         CNVDamp         .... on
   Fraction old density DampFac         ....    0.7000
   Max. Damping (<1)    DampMax         ....    0.9800
   Min. Damping (>=0)   DampMin         ....    0.0000
   Turn off err/grad.   DampErr         ....    0.1000
 Fernandez-Rico         CNVRico         .... off

SCF Procedure:
 Maximum # iterations   MaxIter         ....   125
 SCF integral mode      SCFMode         .... Direct
   Integral package                     .... LIBINT
 Reset frequency        DirectResetFreq ....    20
 Integral Threshold     Thresh          ....  1.000e-10 Eh
 Primitive CutOff       TCut            ....  1.000e-11 Eh

Convergence Tolerance:
 Convergence Check Mode ConvCheckMode   .... Total+1el-Energy
 Convergence forced     ConvForced      .... 1
 Energy Change          TolE            ....  1.000e-06 Eh
 1-El. energy change                    ....  1.000e-03 Eh
 Orbital Gradient       TolG            ....  5.000e-05
 Orbital Rotation angle TolX            ....  5.000e-05
 DIIS Error             TolErr          ....  1.000e-06


Diagonalization of the overlap matrix:
Smallest eigenvalue                        ... 2.458e-05
Time for diagonalization                   ...    0.202 sec
Threshold for overlap eigenvalues          ... 1.000e-08
Number of eigenvalues below threshold      ... 0
Time for construction of square roots      ...    0.125 sec
Total time needed                          ...    0.330 sec

-------------------
DFT GRID GENERATION
-------------------

General Integration Accuracy     IntAcc      ...  4.340
Radial Grid Type                 RadialGrid  ... Gauss-Chebyshev
Angular Grid (max. acc.)         AngularGrid ... Lebedev-110
Angular grid pruning method      GridPruning ... 3 (G Style)
Weight generation scheme         WeightScheme... Becke
Basis function cutoff            BFCut       ...    1.0000e-10
Integration weight cutoff        WCut        ...    1.0000e-14
Grids for H and He will be reduced by one unit

# of grid points (after initial pruning)     ...  30516 (   0.0 sec)
# of grid points (after weights+screening)   ...  28227 (   0.0 sec)
nearest neighbour list constructed           ...    0.0 sec
Grid point re-assignment to atoms done       ...    0.0 sec
Grid point division into batches done        ...    0.0 sec
Reduced shell lists constructed in    0.1 sec

Total number of grid points                  ...    28227
Total number of batches                      ...      457
Average number of points per batch           ...       61
Average number of grid points per atom       ...     1008
Average number of shells per batch           ...   144.89 (48.79%)
Average number of basis functions per batch  ...   373.66 (43.91%)
Average number of large shells per batch     ...   100.11 (69.09%)
Average number of large basis fcns per batch ...   245.94 (65.82%)
Maximum spatial batch extension              ...  13.11, 13.30, 18.01 au
Average spatial batch extension              ...   0.39,  0.38,  0.44 au

Time for grid setup =    0.191 sec

------------------------------
INITIAL GUESS: MODEL POTENTIAL
------------------------------
Loading Hartree-Fock densities                     ... done
Calculating cut-offs                               ... done
Setting up the integral package                    ... done
Initializing the effective Hamiltonian             ... done
Starting the Coulomb interaction                   ... done (   0.2 sec)
Reading the grid                                   ... done
Mapping shells                                     ... done
Starting the XC term evaluation                    ... done (   0.1 sec)
Transforming the Hamiltonian                       ... done (   0.1 sec)
Diagonalizing the Hamiltonian                      ... done (   0.2 sec)
Back transforming the eigenvectors                 ... done (   0.0 sec)
Now organizing SCF variables                       ... done
                      ------------------
                      INITIAL GUESS DONE (   1.0 sec)
                      ------------------
--------------
SCF ITERATIONS
--------------
ITER       Energy         Delta-E        Max-DP      RMS-DP      [F,P]     Damp
               ***  Starting incremental Fock matrix formation  ***
  0   -663.9403122157   0.000000000000 0.03086450  0.00036818  0.3768435 0.7000
  1   -664.2481363006  -0.307824084889 0.01853652  0.00026503  0.2201043 0.7000
                               ***Turning on DIIS***
  2   -664.4130454745  -0.164909173905 0.01389022  0.00016516  0.1216811 0.7000
  3   -665.7404867830  -1.327441308509 0.05378697  0.00037402  0.0847317 0.0000
  4   -664.5001751620   1.240311621059 0.00623844  0.00005456  0.0162884 0.0000
  5   -664.7117090242  -0.211533862247 0.00285615  0.00002607  0.0034313 0.0000
                      *** Initiating the SOSCF procedure ***
                           *** Shutting down DIIS ***
                      *** Re-Reading the Fockian *** 
                      *** Removing any level shift *** 
ITER      Energy       Delta-E        Grad      Rot      Max-DP    RMS-DP
  6   -664.71878971  -0.0070806902  0.000498  0.000498  0.001668  0.000014
               *** Restarting incremental Fock matrix formation ***
  7   -664.73300609  -0.0142163802  0.000160  0.000333  0.000538  0.000004
  8   -664.73301409  -0.0000079924  0.000066  0.000283  0.000412  0.000004
  9   -664.73301601  -0.0000019245  0.000034  0.000027  0.000098  0.000001
                 **** Energy Check signals convergence ****
              ***Rediagonalizing the Fockian in SOSCF/NRSCF***

               *****************************************************
               *                     SUCCESS                       *
               *           SCF CONVERGED AFTER  10 CYCLES          *
               *****************************************************


----------------
TOTAL SCF ENERGY
----------------

Total Energy       :         -664.73301613 Eh          -18088.30496 eV

Components:
Nuclear Repulsion  :          559.30747742 Eh           15219.53021 eV
Electronic Energy  :        -1224.04049355 Eh          -33307.83517 eV
One Electron Energy:        -2031.95328289 Eh          -55292.25983 eV
Two Electron Energy:          807.91278934 Eh           21984.42466 eV

Virial components:
Potential Energy   :        -1328.31912203 Eh          -36145.40091 eV
Kinetic Energy     :          663.58610590 Eh           18057.09595 eV
Virial Ratio       :            2.00172835


---------------
SCF CONVERGENCE
---------------

  Last Energy change         ...   -1.1592e-07  Tolerance :   1.0000e-06
  Last MAX-Density change    ...    1.6851e-05  Tolerance :   1.0000e-05
  Last RMS-Density change    ...    2.3740e-07  Tolerance :   1.0000e-06
  Last Orbital Gradient      ...    4.7643e-06  Tolerance :   5.0000e-05
  Last Orbital Rotation      ...    7.4840e-06  Tolerance :   5.0000e-05

             **** THE GBW FILE WAS UPDATED (DLPNO_CP30.gbw) ****
             **** DENSITY FILE WAS UPDATED (DLPNO_CP30.scfp) ****
             **** ENERGY FILE WAS UPDATED (DLPNO_CP30.en.tmp) ****
             **** THE GBW FILE WAS UPDATED (DLPNO_CP30.gbw) ****
             **** DENSITY FILE WAS UPDATED (DLPNO_CP30.scfp) ****
----------------
ORBITAL ENERGIES
----------------

  NO   OCC          E(Eh)            E(eV) 
   0   2.0000     -20.620968      -561.1251 
   1   2.0000     -20.598493      -560.5135 
   2   2.0000     -20.561449      -559.5055 
   3   2.0000     -20.552222      -559.2544 
   4   2.0000     -20.551072      -559.2231 
   5   2.0000     -20.543809      -559.0255 
   6   2.0000     -20.527898      -558.5925 
   7   2.0000     -20.517527      -558.3103 
   8   2.0000     -15.557591      -423.3436 
   9   2.0000      -1.403381       -38.1879 
  10   2.0000      -1.384539       -37.6752 
  11   2.0000      -1.345209       -36.6050 
  12   2.0000      -1.341248       -36.4972 
  13   2.0000      -1.335948       -36.3530 
  14   2.0000      -1.321871       -35.9699 
  15   2.0000      -1.308350       -35.6020 
  16   2.0000      -1.295479       -35.2518 
  17   2.0000      -1.158428       -31.5224 
  18   2.0000      -0.766584       -20.8598 
  19   2.0000      -0.748414       -20.3654 
  20   2.0000      -0.713975       -19.4282 
  21   2.0000      -0.704537       -19.1714 
  22   2.0000      -0.702273       -19.1098 
  23   2.0000      -0.697534       -18.9809 
  24   2.0000      -0.687983       -18.7210 
  25   2.0000      -0.679485       -18.4897 
  26   2.0000      -0.656925       -17.8759 
  27   2.0000      -0.644385       -17.5346 
  28   2.0000      -0.643810       -17.5190 
  29   2.0000      -0.615982       -16.7617 
  30   2.0000      -0.606926       -16.5153 
  31   2.0000      -0.586522       -15.9601 
  32   2.0000      -0.580831       -15.8052 
  33   2.0000      -0.569319       -15.4920 
  34   2.0000      -0.561288       -15.2734 
  35   2.0000      -0.551655       -15.0113 
  36   2.0000      -0.540831       -14.7168 
  37   2.0000      -0.519085       -14.1250 
  38   2.0000      -0.499688       -13.5972 
  39   2.0000      -0.495060       -13.4713 
  40   2.0000      -0.486732       -13.2447 
  41   2.0000      -0.485508       -13.2114 
  42   2.0000      -0.477231       -12.9861 
  43   2.0000      -0.466083       -12.6828 
  44   2.0000      -0.449452       -12.2302 
  45   0.0000       0.012679         0.3450 
  46   0.0000       0.029599         0.8054 
  47   0.0000       0.032316         0.8794 
  48   0.0000       0.038522         1.0482 
  49   0.0000       0.043017         1.1706 
  50   0.0000       0.054708         1.4887 
  51   0.0000       0.057459         1.5635 
  52   0.0000       0.061106         1.6628 
  53   0.0000       0.061366         1.6698 
  54   0.0000       0.074077         2.0158 
  55   0.0000       0.076087         2.0704 
  56   0.0000       0.080860         2.2003 
  57   0.0000       0.084169         2.2903 
  58   0.0000       0.087597         2.3836 
  59   0.0000       0.094019         2.5584 
  60   0.0000       0.098114         2.6698 
  61   0.0000       0.100769         2.7421 
  62   0.0000       0.104272         2.8374 
  63   0.0000       0.110117         2.9964 
  64   0.0000       0.135428         3.6852 
  65   0.0000       0.142176         3.8688 
  66   0.0000       0.143778         3.9124 
  67   0.0000       0.148342         4.0366 
  68   0.0000       0.152382         4.1465 
  69   0.0000       0.161835         4.4037 
  70   0.0000       0.165218         4.4958 
  71   0.0000       0.169705         4.6179 
  72   0.0000       0.172867         4.7040 
  73   0.0000       0.182254         4.9594 
  74   0.0000       0.184788         5.0283 
  75   0.0000       0.188041         5.1169 
  76   0.0000       0.189466         5.1556 
  77   0.0000       0.195756         5.3268 
  78   0.0000       0.199436         5.4269 
  79   0.0000       0.202767         5.5176 
  80   0.0000       0.210577         5.7301 
  81   0.0000       0.214339         5.8325 
  82   0.0000       0.217234         5.9112 
  83   0.0000       0.220273         5.9939 
  84   0.0000       0.221993         6.0407 
  85   0.0000       0.224959         6.1215 
  86   0.0000       0.228961         6.2303 
  87   0.0000       0.229986         6.2582 
  88   0.0000       0.232496         6.3265 
  89   0.0000       0.238874         6.5001 
  90   0.0000       0.243563         6.6277 
  91   0.0000       0.246643         6.7115 
  92   0.0000       0.251845         6.8531 
  93   0.0000       0.258933         7.0459 
  94   0.0000       0.261528         7.1165 
  95   0.0000       0.267576         7.2811 
  96   0.0000       0.268147         7.2966 
  97   0.0000       0.274874         7.4797 
  98   0.0000       0.280656         7.6370 
  99   0.0000       0.282080         7.6758 
 100   0.0000       0.289110         7.8671 
 101   0.0000       0.298749         8.1294 
 102   0.0000       0.307043         8.3551 
 103   0.0000       0.310083         8.4378 
 104   0.0000       0.319334         8.6895 
 105   0.0000       0.322544         8.7769 
 106   0.0000       0.327352         8.9077 
 107   0.0000       0.336104         9.1458 
 108   0.0000       0.346654         9.4329 
 109   0.0000       0.353017         9.6061 
 110   0.0000       0.355849         9.6831 
 111   0.0000       0.356515         9.7013 
 112   0.0000       0.361804         9.8452 
 113   0.0000       0.368483        10.0269 
 114   0.0000       0.373663        10.1679 
 115   0.0000       0.376060        10.2331 
 116   0.0000       0.380880        10.3643 
 117   0.0000       0.387914        10.5557 
 118   0.0000       0.389523        10.5995 
 119   0.0000       0.391836        10.6624 
 120   0.0000       0.397516        10.8170 
 121   0.0000       0.400456        10.8970 
 122   0.0000       0.402349        10.9485 
 123   0.0000       0.408082        11.1045 
 124   0.0000       0.411831        11.2065 
 125   0.0000       0.416576        11.3356 
 126   0.0000       0.417724        11.3669 
 127   0.0000       0.419389        11.4122 
 128   0.0000       0.426883        11.6161 
 129   0.0000       0.430187        11.7060 
 130   0.0000       0.433508        11.7964 
 131   0.0000       0.437812        11.9135 
 132   0.0000       0.440930        11.9983 
 133   0.0000       0.442189        12.0326 
 134   0.0000       0.451610        12.2889 
 135   0.0000       0.454933        12.3794 
 136   0.0000       0.458087        12.4652 
 137   0.0000       0.462740        12.5918 
 138   0.0000       0.463664        12.6169 
 139   0.0000       0.467267        12.7150 
 140   0.0000       0.470442        12.8014 
 141   0.0000       0.473615        12.8877 
 142   0.0000       0.480828        13.0840 
 143   0.0000       0.489394        13.3171 
 144   0.0000       0.493290        13.4231 
 145   0.0000       0.494090        13.4449 
 146   0.0000       0.500082        13.6079 
 147   0.0000       0.502377        13.6704 
 148   0.0000       0.505088        13.7441 
 149   0.0000       0.507264        13.8033 
 150   0.0000       0.513312        13.9679 
 151   0.0000       0.517170        14.0729 
 152   0.0000       0.528041        14.3687 
 153   0.0000       0.531427        14.4609 
 154   0.0000       0.533345        14.5130 
 155   0.0000       0.537603        14.6289 
 156   0.0000       0.541913        14.7462 
 157   0.0000       0.544179        14.8079 
 158   0.0000       0.551301        15.0017 
 159   0.0000       0.557681        15.1753 
 160   0.0000       0.560566        15.2538 
 161   0.0000       0.564783        15.3685 
 162   0.0000       0.571086        15.5400 
 163   0.0000       0.579703        15.7745 
 164   0.0000       0.585359        15.9284 
 165   0.0000       0.594435        16.1754 
 166   0.0000       0.600438        16.3387 
 167   0.0000       0.605127        16.4663 
 168   0.0000       0.606782        16.5114 
 169   0.0000       0.616030        16.7630 
 170   0.0000       0.629522        17.1302 
 171   0.0000       0.638047        17.3621 
 172   0.0000       0.646696        17.5975 
 173   0.0000       0.656608        17.8672 
 174   0.0000       0.657242        17.8845 
 175   0.0000       0.662251        18.0208 
 176   0.0000       0.664444        18.0804 
 177   0.0000       0.673072        18.3152 
 178   0.0000       0.677854        18.4453 
 179   0.0000       0.684720        18.6322 
 180   0.0000       0.686952        18.6929 
 181   0.0000       0.693355        18.8671 
 182   0.0000       0.700013        19.0483 
 183   0.0000       0.711139        19.3511 
 184   0.0000       0.716488        19.4966 
 185   0.0000       0.727543        19.7975 
 186   0.0000       0.731048        19.8928 
 187   0.0000       0.745951        20.2984 
 188   0.0000       0.748051        20.3555 
 189   0.0000       0.756892        20.5961 
 190   0.0000       0.767068        20.8730 
 191   0.0000       0.770115        20.9559 
 192   0.0000       0.770544        20.9676 
 193   0.0000       0.778551        21.1855 
 194   0.0000       0.786288        21.3960 
 195   0.0000       0.796535        21.6748 
 196   0.0000       0.799668        21.7601 
 197   0.0000       0.801306        21.8046 
 198   0.0000       0.808334        21.9959 
 199   0.0000       0.822982        22.3945 
 200   0.0000       0.826313        22.4851 
 201   0.0000       0.831548        22.6276 
 202   0.0000       0.832910        22.6646 
 203   0.0000       0.837255        22.7829 
 204   0.0000       0.842250        22.9188 
 205   0.0000       0.846990        23.0478 
 206   0.0000       0.856756        23.3135 
 207   0.0000       0.860333        23.4109 
 208   0.0000       0.864036        23.5116 
 209   0.0000       0.866569        23.5806 
 210   0.0000       0.875024        23.8106 
 211   0.0000       0.878555        23.9067 
 212   0.0000       0.885172        24.0868 
 213   0.0000       0.890229        24.2244 
 214   0.0000       0.896190        24.3866 
 215   0.0000       0.901613        24.5341 
 216   0.0000       0.903640        24.5893 
 217   0.0000       0.911398        24.8004 
 218   0.0000       0.914030        24.8720 
 219   0.0000       0.924509        25.1572 
 220   0.0000       0.928325        25.2610 
 221   0.0000       0.932350        25.3705 
 222   0.0000       0.935424        25.4542 
 223   0.0000       0.940518        25.5928 
 224   0.0000       0.945062        25.7164 
 225   0.0000       0.947825        25.7916 
 226   0.0000       0.953445        25.9445 
 227   0.0000       0.954656        25.9775 
 228   0.0000       0.959941        26.1213 
 229   0.0000       0.968231        26.3469 
 230   0.0000       0.970305        26.4033 
 231   0.0000       0.976340        26.5676 
 232   0.0000       0.982644        26.7391 
 233   0.0000       0.988673        26.9032 
 234   0.0000       0.991203        26.9720 
 235   0.0000       0.991793        26.9880 
 236   0.0000       0.998564        27.1723 
 237   0.0000       1.002158        27.2701 
 238   0.0000       1.006203        27.3802 
 239   0.0000       1.011948        27.5365 
 240   0.0000       1.015363        27.6294 
 241   0.0000       1.018849        27.7243 
 242   0.0000       1.022307        27.8184 
 243   0.0000       1.028653        27.9911 
 244   0.0000       1.031914        28.0798 
 245   0.0000       1.034372        28.1467 
 246   0.0000       1.039019        28.2731 
 247   0.0000       1.042010        28.3545 
 248   0.0000       1.045653        28.4537 
 249   0.0000       1.051601        28.6155 
 250   0.0000       1.054491        28.6942 
 251   0.0000       1.058956        28.8157 
 252   0.0000       1.062910        28.9232 
 253   0.0000       1.068976        29.0883 
 254   0.0000       1.076758        29.3001 
 255   0.0000       1.082760        29.4634 
 256   0.0000       1.090699        29.6794 
 257   0.0000       1.093508        29.7559 
 258   0.0000       1.096634        29.8409 
 259   0.0000       1.098535        29.8927 
 260   0.0000       1.103090        30.0166 
 261   0.0000       1.108889        30.1744 
 262   0.0000       1.111355        30.2415 
 263   0.0000       1.116308        30.3763 
 264   0.0000       1.121117        30.5072 
 265   0.0000       1.124574        30.6012 
 266   0.0000       1.130710        30.7682 
 267   0.0000       1.138629        30.9837 
 268   0.0000       1.140953        31.0469 
 269   0.0000       1.147784        31.2328 
 270   0.0000       1.152525        31.3618 
 271   0.0000       1.157723        31.5032 
 272   0.0000       1.162748        31.6400 
 273   0.0000       1.171600        31.8809 
 274   0.0000       1.174065        31.9479 
 275   0.0000       1.177171        32.0324 
 276   0.0000       1.184106        32.2212 
 277   0.0000       1.191301        32.4170 
 278   0.0000       1.193087        32.4656 
 279   0.0000       1.204424        32.7741 
 280   0.0000       1.205015        32.7901 
 281   0.0000       1.216188        33.0942 
 282   0.0000       1.222226        33.2585 
 283   0.0000       1.228329        33.4245 
 284   0.0000       1.233635        33.5689 
 285   0.0000       1.234878        33.6027 
 286   0.0000       1.242794        33.8181 
 287   0.0000       1.252077        34.0708 
 288   0.0000       1.257626        34.2217 
 289   0.0000       1.259907        34.2838 
 290   0.0000       1.270759        34.5791 
 291   0.0000       1.272879        34.6368 
 292   0.0000       1.285666        34.9848 
 293   0.0000       1.289242        35.0821 
 294   0.0000       1.294926        35.2367 
 295   0.0000       1.297438        35.3051 
 296   0.0000       1.302641        35.4467 
 297   0.0000       1.308418        35.6039 
 298   0.0000       1.311745        35.6944 
 299   0.0000       1.313515        35.7426 
 300   0.0000       1.317528        35.8518 
 301   0.0000       1.333962        36.2990 
 302   0.0000       1.337302        36.3898 
 303   0.0000       1.343719        36.5644 
 304   0.0000       1.353114        36.8201 
 305   0.0000       1.358292        36.9610 
 306   0.0000       1.360509        37.0213 
 307   0.0000       1.369990        37.2793 
 308   0.0000       1.375709        37.4350 
 309   0.0000       1.379642        37.5420 
 310   0.0000       1.381724        37.5986 
 311   0.0000       1.391579        37.8668 
 312   0.0000       1.401197        38.1285 
 313   0.0000       1.407241        38.2930 
 314   0.0000       1.410826        38.3905 
 315   0.0000       1.417613        38.5752 
 316   0.0000       1.420583        38.6560 
 317   0.0000       1.422893        38.7189 
 318   0.0000       1.434211        39.0269 
 319   0.0000       1.440306        39.1927 
 320   0.0000       1.446969        39.3740 
 321   0.0000       1.449006        39.4295 
 322   0.0000       1.454429        39.5770 
 323   0.0000       1.461369        39.7659 
 324   0.0000       1.468778        39.9675 
 325   0.0000       1.479968        40.2720 
 326   0.0000       1.487825        40.4858 
 327   0.0000       1.491762        40.5929 
 328   0.0000       1.497830        40.7580 
 329   0.0000       1.498222        40.7687 
 330   0.0000       1.512415        41.1549 
 331   0.0000       1.522535        41.4303 
 332   0.0000       1.528766        41.5998 
 333   0.0000       1.532712        41.7072 
 334   0.0000       1.542263        41.9671 
 335   0.0000       1.553224        42.2654 
 336   0.0000       1.556271        42.3483 
 337   0.0000       1.570324        42.7307 
 338   0.0000       1.581259        43.0282 
 339   0.0000       1.588862        43.2351 
 340   0.0000       1.592749        43.3409 
 341   0.0000       1.601053        43.5669 
 342   0.0000       1.613443        43.9040 
 343   0.0000       1.615552        43.9614 
 344   0.0000       1.622741        44.1570 
 345   0.0000       1.625625        44.2355 
 346   0.0000       1.635807        44.5126 
 347   0.0000       1.639575        44.6151 
 348   0.0000       1.649040        44.8727 
 349   0.0000       1.654283        45.0153 
 350   0.0000       1.663832        45.2752 
 351   0.0000       1.672176        45.5022 
 352   0.0000       1.674454        45.5642 
 353   0.0000       1.681976        45.7689 
 354   0.0000       1.690375        45.9974 
 355   0.0000       1.698651        46.2227 
 356   0.0000       1.701303        46.2948 
 357   0.0000       1.720426        46.8152 
 358   0.0000       1.722881        46.8820 
 359   0.0000       1.733641        47.1748 
 360   0.0000       1.743973        47.4559 
 361   0.0000       1.744812        47.4788 
 362   0.0000       1.750840        47.6428 
 363   0.0000       1.756987        47.8100 
 364   0.0000       1.768526        48.1240 
 365   0.0000       1.772161        48.2230 
 366   0.0000       1.780740        48.4564 
 367   0.0000       1.785853        48.5955 
 368   0.0000       1.793427        48.8016 
 369   0.0000       1.802192        49.0401 
 370   0.0000       1.808504        49.2119 
 371   0.0000       1.817151        49.4472 
 372   0.0000       1.823623        49.6233 
 373   0.0000       1.833247        49.8852 
 374   0.0000       1.838851        50.0377 
 375   0.0000       1.845543        50.2198 
 376   0.0000       1.857209        50.5372 
 377   0.0000       1.861525        50.6547 
 378   0.0000       1.872172        50.9444 
 379   0.0000       1.880471        51.1702 
 380   0.0000       1.892050        51.4853 
 381   0.0000       1.893575        51.5268 
 382   0.0000       1.896700        51.6118 
 383   0.0000       1.909666        51.9646 
 384   0.0000       1.922090        52.3027 
 385   0.0000       1.931721        52.5648 
 386   0.0000       1.940302        52.7983 
 387   0.0000       1.958231        53.2862 
 388   0.0000       1.970898        53.6309 
 389   0.0000       1.976638        53.7870 
 390   0.0000       1.978169        53.8287 
 391   0.0000       1.986995        54.0689 
 392   0.0000       1.996535        54.3285 
 393   0.0000       2.008974        54.6670 
 394   0.0000       2.018784        54.9339 
 395   0.0000       2.026970        55.1567 
 396   0.0000       2.032379        55.3038 
 397   0.0000       2.039535        55.4986 
 398   0.0000       2.045632        55.6645 
 399   0.0000       2.054726        55.9119 
 400   0.0000       2.060889        56.0796 
 401   0.0000       2.069352        56.3099 
 402   0.0000       2.081828        56.6494 
 403   0.0000       2.086285        56.7707 
 404   0.0000       2.104840        57.2756 
 405   0.0000       2.111259        57.4503 
 406   0.0000       2.144266        58.3485 
 407   0.0000       2.154085        58.6156 
 408   0.0000       2.162405        58.8420 
 409   0.0000       2.175222        59.1908 
 410   0.0000       2.176457        59.2244 
 411   0.0000       2.183138        59.4062 
 412   0.0000       2.196320        59.7649 
 413   0.0000       2.202610        59.9361 
 414   0.0000       2.211236        60.1708 
 415   0.0000       2.228297        60.6350 
 416   0.0000       2.235855        60.8407 
 417   0.0000       2.271812        61.8191 
 418   0.0000       2.286727        62.2250 
 419   0.0000       2.291570        62.3568 
 420   0.0000       2.307847        62.7997 
 421   0.0000       2.326077        63.2958 
 422   0.0000       2.335588        63.5546 
 423   0.0000       2.342292        63.7370 
 424   0.0000       2.368134        64.4402 
 425   0.0000       2.385029        64.8999 
 426   0.0000       2.388543        64.9956 
 427   0.0000       2.411497        65.6202 
 428   0.0000       2.414411        65.6995 
 429   0.0000       2.422808        65.9280 
 430   0.0000       2.434706        66.2517 
 431   0.0000       2.439979        66.3952 
 432   0.0000       2.455260        66.8110 
 433   0.0000       2.460112        66.9430 
 434   0.0000       2.462042        66.9956 
 435   0.0000       2.472415        67.2778 
 436   0.0000       2.488883        67.7259 
 437   0.0000       2.493597        67.8542 
 438   0.0000       2.501691        68.0745 
 439   0.0000       2.505283        68.1722 
 440   0.0000       2.508448        68.2584 
 441   0.0000       2.513268        68.3895 
 442   0.0000       2.516189        68.4690 
 443   0.0000       2.529330        68.8266 
 444   0.0000       2.537947        69.0610 
 445   0.0000       2.540716        69.1364 
 446   0.0000       2.545290        69.2609 
 447   0.0000       2.555785        69.5465 
 448   0.0000       2.565234        69.8036 
 449   0.0000       2.571476        69.9734 
 450   0.0000       2.583902        70.3116 
 451   0.0000       2.586847        70.3917 
 452   0.0000       2.599486        70.7356 
 453   0.0000       2.611443        71.0610 
 454   0.0000       2.619178        71.2715 
 455   0.0000       2.629671        71.5570 
 456   0.0000       2.633008        71.6478 
 457   0.0000       2.647216        72.0344 
 458   0.0000       2.652165        72.1691 
 459   0.0000       2.657083        72.3029 
 460   0.0000       2.662147        72.4407 
 461   0.0000       2.671511        72.6955 
 462   0.0000       2.682468        72.9937 
 463   0.0000       2.690570        73.2141 
 464   0.0000       2.693408        73.2914 
 465   0.0000       2.707524        73.6755 
 466   0.0000       2.714665        73.8698 
 467   0.0000       2.721329        74.0511 
 468   0.0000       2.726535        74.1928 
 469   0.0000       2.734699        74.4150 
 470   0.0000       2.740200        74.5646 
 471   0.0000       2.747797        74.7713 
 472   0.0000       2.754599        74.9565 
 473   0.0000       2.761994        75.1577 
 474   0.0000       2.766771        75.2877 
 475   0.0000       2.778397        75.6040 
 476   0.0000       2.786632        75.8281 
 477   0.0000       2.795215        76.0617 
 478   0.0000       2.802441        76.2583 
 479   0.0000       2.811051        76.4926 
 480   0.0000       2.824962        76.8711 
 481   0.0000       2.828605        76.9702 
 482   0.0000       2.831581        77.0512 
 483   0.0000       2.836536        77.1861 
 484   0.0000       2.848822        77.5204 
 485   0.0000       2.853358        77.6438 
 486   0.0000       2.864860        77.9568 
 487   0.0000       2.868853        78.0655 
 488   0.0000       2.871882        78.1479 
 489   0.0000       2.884140        78.4814 
 490   0.0000       2.886178        78.5369 
 491   0.0000       2.895944        78.8026 
 492   0.0000       2.903202        79.0001 
 493   0.0000       2.906285        79.0840 
 494   0.0000       2.925147        79.5973 
 495   0.0000       2.931532        79.7710 
 496   0.0000       2.936781        79.9139 
 497   0.0000       2.953667        80.3734 
 498   0.0000       2.956649        80.4545 
 499   0.0000       2.968790        80.7849 
 500   0.0000       2.975014        80.9543 
 501   0.0000       2.982384        81.1548 
 502   0.0000       2.988634        81.3249 
 503   0.0000       3.009911        81.9038 
 504   0.0000       3.019001        82.1512 
 505   0.0000       3.024998        82.3144 
 506   0.0000       3.031370        82.4878 
 507   0.0000       3.044578        82.8472 
 508   0.0000       3.062360        83.3311 
 509   0.0000       3.073179        83.6254 
 510   0.0000       3.094403        84.2030 
 511   0.0000       3.103129        84.4404 
 512   0.0000       3.108757        84.5936 
 513   0.0000       3.116205        84.7962 
 514   0.0000       3.130608        85.1882 
 515   0.0000       3.141507        85.4847 
 516   0.0000       3.151454        85.7554 
 517   0.0000       3.174036        86.3699 
 518   0.0000       3.183980        86.6405 
 519   0.0000       3.190398        86.8151 
 520   0.0000       3.197229        87.0010 
 521   0.0000       3.219638        87.6108 
 522   0.0000       3.223930        87.7276 
 523   0.0000       3.241220        88.1981 
 524   0.0000       3.245974        88.3274 
 525   0.0000       3.275495        89.1307 
 526   0.0000       3.292154        89.5841 
 527   0.0000       3.295567        89.6769 
 528   0.0000       3.333688        90.7143 
 529   0.0000       3.357804        91.3705 
 530   0.0000       3.375607        91.8549 
 531   0.0000       3.403613        92.6170 
 532   0.0000       3.404605        92.6440 
 533   0.0000       3.447754        93.8182 
 534   0.0000       3.510500        95.5256 
 535   0.0000       3.547428        96.5304 
 536   0.0000       3.678195       100.0888 
 537   0.0000       3.751105       102.0727 
 538   0.0000       3.794772       103.2610 
 539   0.0000       3.828511       104.1791 
 540   0.0000       3.856954       104.9530 
 541   0.0000       3.871194       105.3406 
 542   0.0000       3.928790       106.9078 
 543   0.0000       4.017116       109.3113 
 544   0.0000       4.029841       109.6575 
 545   0.0000       4.036543       109.8399 
 546   0.0000       4.055895       110.3665 
 547   0.0000       4.075563       110.9017 
 548   0.0000       4.092064       111.3507 
 549   0.0000       4.098663       111.5303 
 550   0.0000       4.102308       111.6295 
 551   0.0000       4.114775       111.9687 
 552   0.0000       4.136576       112.5619 
 553   0.0000       4.157939       113.1433 
 554   0.0000       4.169643       113.4617 
 555   0.0000       4.174217       113.5862 
 556   0.0000       4.187944       113.9597 
 557   0.0000       4.195492       114.1651 
 558   0.0000       4.208301       114.5137 
 559   0.0000       4.216598       114.7395 
 560   0.0000       4.226600       115.0116 
 561   0.0000       4.227600       115.0388 
 562   0.0000       4.233003       115.1859 
 563   0.0000       4.244150       115.4892 
 564   0.0000       4.250479       115.6614 
 565   0.0000       4.259178       115.8981 
 566   0.0000       4.267876       116.1348 
 567   0.0000       4.270736       116.2126 
 568   0.0000       4.281274       116.4994 
 569   0.0000       4.283793       116.5679 
 570   0.0000       4.292684       116.8099 
 571   0.0000       4.300059       117.0105 
 572   0.0000       4.311333       117.3173 
 573   0.0000       4.311959       117.3344 
 574   0.0000       4.321162       117.5848 
 575   0.0000       4.324711       117.6814 
 576   0.0000       4.329616       117.8148 
 577   0.0000       4.333570       117.9224 
 578   0.0000       4.344042       118.2074 
 579   0.0000       4.360332       118.6507 
 580   0.0000       4.363356       118.7329 
 581   0.0000       4.366435       118.8167 
 582   0.0000       4.388147       119.4076 
 583   0.0000       4.398986       119.7025 
 584   0.0000       4.403673       119.8300 
 585   0.0000       4.416249       120.1722 
 586   0.0000       4.420255       120.2813 
 587   0.0000       4.423586       120.3719 
 588   0.0000       4.435003       120.6826 
 589   0.0000       4.441337       120.8549 
 590   0.0000       4.447781       121.0303 
 591   0.0000       4.455572       121.2423 
 592   0.0000       4.462319       121.4259 
 593   0.0000       4.469869       121.6313 
 594   0.0000       4.473580       121.7323 
 595   0.0000       4.485213       122.0489 
 596   0.0000       4.490686       122.1978 
 597   0.0000       4.496358       122.3521 
 598   0.0000       4.503536       122.5474 
 599   0.0000       4.521361       123.0325 
 600   0.0000       4.523091       123.0796 
 601   0.0000       4.534175       123.3812 
 602   0.0000       4.536602       123.4472 
 603   0.0000       4.553510       123.9073 
 604   0.0000       4.556057       123.9766 
 605   0.0000       4.569816       124.3510 
 606   0.0000       4.578537       124.5883 
 607   0.0000       4.592882       124.9787 
 608   0.0000       4.595222       125.0423 
 609   0.0000       4.601500       125.2132 
 610   0.0000       4.610891       125.4687 
 611   0.0000       4.614093       125.5559 
 612   0.0000       4.619348       125.6988 
 613   0.0000       4.632420       126.0546 
 614   0.0000       4.637597       126.1954 
 615   0.0000       4.646145       126.4280 
 616   0.0000       4.650273       126.5404 
 617   0.0000       4.666463       126.9809 
 618   0.0000       4.668730       127.0426 
 619   0.0000       4.675101       127.2160 
 620   0.0000       4.688873       127.5907 
 621   0.0000       4.703871       127.9988 
 622   0.0000       4.704739       128.0224 
 623   0.0000       4.712596       128.2363 
 624   0.0000       4.719256       128.4175 
 625   0.0000       4.747451       129.1847 
 626   0.0000       4.751249       129.2880 
 627   0.0000       4.756002       129.4174 
 628   0.0000       4.765078       129.6644 
 629   0.0000       4.770396       129.8091 
 630   0.0000       4.780328       130.0793 
 631   0.0000       4.792051       130.3983 
 632   0.0000       4.801871       130.6656 
 633   0.0000       4.813946       130.9941 
 634   0.0000       4.819858       131.1550 
 635   0.0000       4.831266       131.4654 
 636   0.0000       4.839699       131.6949 
 637   0.0000       4.854890       132.1083 
 638   0.0000       4.861059       132.2761 
 639   0.0000       4.863779       132.3502 
 640   0.0000       4.882900       132.8705 
 641   0.0000       4.888367       133.0192 
 642   0.0000       4.901825       133.3854 
 643   0.0000       4.914950       133.7426 
 644   0.0000       4.932554       134.2216 
 645   0.0000       4.951585       134.7395 
 646   0.0000       4.965366       135.1145 
 647   0.0000       4.973888       135.3464 
 648   0.0000       4.979599       135.5018 
 649   0.0000       4.985268       135.6560 
 650   0.0000       5.012526       136.3978 
 651   0.0000       5.018500       136.5603 
 652   0.0000       5.027456       136.8040 
 653   0.0000       5.031277       136.9080 
 654   0.0000       5.055470       137.5663 
 655   0.0000       5.062341       137.7533 
 656   0.0000       5.074466       138.0833 
 657   0.0000       5.089394       138.4895 
 658   0.0000       5.101334       138.8144 
 659   0.0000       5.122029       139.3775 
 660   0.0000       5.143272       139.9555 
 661   0.0000       5.154271       140.2548 
[...]
   TCutMKN   ...     1.0e-03
   TCutDO    ...     5.0e-03
   TCutPairs ...     1.0e-05
   TCutCMO   ...     1.0e-03
   TCutCPAO  ...     1.0e-03

Thresholds for map construction and integral transformation for strong Triples:
   TCutMKN   ...     1.0e-02
   TCutDO    ...     1.0e-02
   TCutCMO   ...     1.0e-03
   TCutCPAO  ...     1.0e-03

Thresholds for map construction and integral transformation for weak Triples:
   TCutMKN   ...     1.0e-01
   TCutDO    ...     2.0e-02
   TCutCMO   ...     1.0e-03
   TCutCPAO  ...     1.0e-03

--------------------------------
LOCAL RI TRANSFORMATION (IAVPAO)
--------------------------------

Orbital window:       1 to 4
Number of PAOs:     851
Basis functions:    851 (297 shells)
Aux. functions:    1828 (518 shells)

Processing maps (0.0 sec)
Average map sizes:
   Aux shells -> MOs               1.3
   Aux shells -> PAOs            246.2
   MOs        -> AO shells       277.5
   PAOs       -> AO shells       186.0

Calculating integrals (1.7 sec, 14.090 MB)
Sorting integrals (0.1 sec, 14.083 MB)
Total time for the integral transformation: 1.9 sec
--------------------------------
INITIAL GUESS AND PNO GENERATION
--------------------------------

PNO truncation parameters                   .... 
    ScaleTCutPNO       =        1.000e-02
    PAOOverlapThresh   =        1.000e-08

    TCutPairs          =        1.000e-05
    TCutPNO            =        1.000e-07
    TCutPNOSingles     =        3.000e-09
    TCutMP2Pairs       =        1.000e-06
    TCutMKN            =        1.000e-03
    TCutDO             =        5.000e-03

Pair selection                          .... not used
Type of local MP2 treatment                 .... full local PMP2
Strategy for PNO selection                  .... occupation number selection
Pair density normalization                  .... MP2 norm
Spin component scaling                      .... not used

PASS-1: Formation of initial guess LMP2 amplitudes
Initial amplitudes guess done. Entering LMP2 iteration loop:
   Max. no of iterations          ...  50
   Energy convergence tolerance   ...    1.0e-07
   Residual convergence tolerance ...    5.0e-07
   Fock matrix cutoff             ...    1.0e-05 Eh
   DIIS convergence acceleration parameters:
        Max # vectors in DIIS     ... 7
        Start iteration of DIIS   ... 0
        Levelshift                ... 2.000e-01
        Damping factor 1          ... 5.000e-01
        Damping factor 2          ... 1.000e+00
   L-MP2 PNO cut-off              ...   1.0e-09
   L-MP2 PNO cut-off (core)       ...   1.0e-11
                           *** Turning on DIIS ***
LMP2-Iter=   0:  ELMP2= -0.238811460845  DE=   3.3e-03 RMAX=   3.5e-03
LMP2-Iter=   1:  ELMP2= -0.240825016668  DE=   2.0e-03 RMAX=   1.3e-03
LMP2-Iter=   2:  ELMP2= -0.241101975499  DE=   2.8e-04 RMAX=   2.1e-04
LMP2-Iter=   3:  ELMP2= -0.241131419067  DE=   2.9e-05 RMAX=   7.2e-05
LMP2-Iter=   4:  ELMP2= -0.241133029175  DE=   1.6e-06 RMAX=   9.1e-06
LMP2-Iter=   5:  ELMP2= -0.241132950291  DE=   7.9e-08 RMAX=   3.3e-06
LMP2-Iter=   6:  ELMP2= -0.241132943429  DE=   6.9e-09 RMAX=   3.1e-07
LMP2-Iter=   7:  ELMP2= -0.241132942458  DE=   9.7e-10 RMAX=   9.4e-08 => CONVERGED
PASS-2: Formation of Pair natural orbitals
   .... Finished loop over pairs

 PNO Occupation Number Statistics: 
  | Av. % of trace(Dij) retained        ...  99.990955340752
  | sigma^2 in % of trace(Dij) retained ...   2.39e-06
  | Av. % of trace(Di) retained         ...  99.999800585338
  | sigma^2 in % of trace(Di) retained  ...   1.43e-09
 Distributions of % trace(Dij) recovered:
  |       >= 99.9  ...    10 (100.0 % of all pairs)
 Distributions of % trace(Di) recovered :
  |       >= 99.9  ...     4 (100.0 % of all I-pairs )

Making pair pair interaction lists          ... done

                       ===========================
                         10 OF   10 PAIRS ARE KEPT
                       ===========================

Total time spent in the initial guess                 ...     2.451 sec
L-MP2 correlation energy (all non-screened pairs)     ...      -0.241132942458 Eh
L-MP2 PNO error correction                            ...      -0.000000455598 Eh
                                                          --------------------
Initial total L-MP2 energy (non-screened pairs)       ...      -0.241133398056 Eh

Initial PNO correlation energy                        ...      -0.241073188847 Eh
sum of pair energies estimated for screened out pairs ...       0.000000000000 Eh
sum of MP2 pair energies for pairs that were not kept ...       0.000000000000 Eh
sum of PNO error estimates for the kept pairs         ...      -0.000060209209 Eh
                                                          --------------------
sum of all corrections                                         -0.000060209209
Initial total correlation energy                               -0.241133398056
Thresholds for map construction and integral transformation for fine MP2 and CCSD(T) calculation:
   TCutMKN   ...     1.0e-03
   TCutDO    ...     5.0e-03
   TCutPairs ...     1.0e-05
   TCutCMO   ...     1.0e-03
   TCutCPAO  ...     1.0e-03

Time for aux screen maps:            0.005
Time for maps after fine MP2:            0.016
-----------------------------
LOCAL RI TRANSFORMATION (IJV)
-----------------------------

Orbital window:       1 to 4
Basis functions:    851 (297 shells)
Aux. functions:    1828 (518 shells)

Processing maps (0.0 sec)
Average map sizes:
   Aux shells -> MOs(i)            1.3
   Aux shells -> MOs(j)            1.3
   MOs        -> AO shells       277.5

Calculating integrals (1.6 sec, 0.081 MB)
Sorting integrals (0.0 sec, 0.074 MB)
Total time for the integral transformation: 1.6 sec
--------------------------------
LOCAL RI TRANSFORMATION (VABPAO)
--------------------------------

Number of PAOs:     851
Basis functions:    851 (297 shells)
Aux. functions:    1828 (518 shells)

Processing maps (0.0 sec)
Average map sizes:
   Aux shells -> PAOs            246.2
   PAOs       -> AO shells       186.0

Calculating integrals (10.2 sec, 5107.177 MB)
Finished


-------------------------------------
Pair Pair Term precalculation with     
RI-(ij|mn) and (im|jn) transformation  
ON THE FLY                             
-------------------------------------

   IBatch   1 (of   1)              ... done (    4.119 sec)
Total EXT                           ...           4.119 sec

---------------------
RI-PNO TRANSFORMATION
---------------------

Total Number of PNOs                   ...   705
Average number of PNOs per pair        ...    70
Maximal number of PNOs per pair        ...    78
   #pairs with  1 -  5 PNOs   :    0
   #pairs with  6 - 10 PNOs   :    0
   #pairs with 11 - 15 PNOs   :    0
   #pairs with 16 - 20 PNOs   :    0
   #pairs with 21 - 25 PNOs   :    0
   #pairs with 26 - 30 PNOs   :    0
   #pairs with 31 - 35 PNOs   :    0
   #pairs with 36 - 40 PNOs   :    0
   #pairs with 41 - 45 PNOs   :    0
   #pairs with 46 - 50 PNOs   :    0
   #pairs with 56 - 60 PNOs   :    2
   #pairs with 61 - 65 PNOs   :    1
   #pairs with 71 - 75 PNOs   :    4
   #pairs with 76 - 80 PNOs   :    3

Generation of (ij|ab)[P] integrals            ... on
Generation of (ia|bc)[P],(ja|bc)[P] integrals ... on
Storage of 3 and 4 external integrals         ... on
Generation of ALL (ka|bc)[P] integrals        ... on
Keep RI integrals in memory                   ... off

Ibatch:  1 (of  1)
Starting 2-4 index PNO integral generation ... done

Timings:
Total PNO integral transformation time     ...          7.008 sec
Size of the 3-external file                ...        27 MB
Size of the 4-external file                ...       257 MB
Size of the IKJL file                      ...         0 MB
Size of the all 3-external file            ...        55 MB
Size of the 1-external file                ...         0 MB

Making pair/pair overlap matrices          ... done (    0.102 sec)
Size of the pair overlap file              ... 4 MB
Redoing the guess amplitudes               ... done (    0.006 sec)

-------------------------
FINAL STARTUP INFORMATION
-------------------------

E(0)                                       ...    -56.220069386
E(L-MP2)                                   ...     -0.241133398
E(L-MP2) including corrections             ...     -0.241133398
Initial E(tot)                             ...    -56.461202784
<T|T>                                      ...      0.062505905
Number of pairs included                   ... 10
Total number of pairs                      ... 10

------------------------------------------------
                  RHF COUPLED CLUSTER ITERATIONS
------------------------------------------------

Number of PNO amplitudes to be optimized   ...        50251
Number of non-PNO amplitudes               ...      7157160
Untruncated number of regular amplitudes   ...      7157160

Iter       E(tot)           E(Corr)          Delta-E          Residual     Time
  0    -56.455524897     -0.235395302      0.005738096      0.010302706    2.19
                           *** Turning on DIIS ***
  1    -56.465556433     -0.245426838     -0.010031536      0.005627247    2.14
  2    -56.471600519     -0.251470924     -0.006044086      0.001738201    2.11
  3    -56.472695585     -0.252565990     -0.001095066      0.000663040    2.15
  4    -56.472912407     -0.252782812     -0.000216822      0.000365793    2.11
  5    -56.472956596     -0.252827001     -0.000044189      0.000197392    2.15
  6    -56.472970260     -0.252840665     -0.000013664      0.000086292    2.13
  7    -56.472972045     -0.252842450     -0.000001785      0.000032010    2.15
  8    -56.472972784     -0.252843189     -0.000000739      0.000011385    2.13
               --- The Coupled-Cluster iterations have converged ---

----------------------
COUPLED CLUSTER ENERGY
----------------------

E(0)                                       ...    -56.220069386
E(CORR)(strong-pairs)                      ...     -0.252843189
E(CORR)(weak-pairs)                        ...     -0.000060209
E(CORR)(corrected)                         ...     -0.252903398
E(TOT)                                     ...    -56.472972784
Singles Norm <S|S>**1/2                    ...      0.022999175  
T1 diagnostic                              ...      0.008131436  

------------------
LARGEST AMPLITUDES
------------------
   4->  5   4->  5       0.033146
   2->  5   2->  5       0.033057
   3->  5   3->  5       0.032855
   4-> 13   4-> 13       0.030606
   2-> 13   2-> 13       0.029788
   3-> 13   3-> 13       0.028402
   4->  5   4-> 13       0.027151
   4-> 13   4->  5       0.027151
   2-> 13   2->  5       0.026863
   2->  5   2-> 13       0.026863
   3->  5   3-> 13       0.026045
   3-> 13   3->  5       0.026045
   1->  6   1->  6       0.023234
   1-> 17   1-> 17       0.017424
   4->  8   4->  8       0.017077
   2->  8   2->  8       0.016528


-------------------------------------------
DLPNO BASED TRIPLES CORRECTION
-------------------------------------------

Singles multiplier          ...  1.000000
TCutTNO                     ... 1.000e-09
TCutMP2Pairs                ... 1.000e-06
TCutDOStrong                ... 1.000e-02
TCutMKNStrong               ... 1.000e-02
TCutDOWeak                  ... 2.000e-02
TCutMKNWeak                 ... 1.000e-01

Fragment selection                          .... not used
Fock matrix occ-virt block is zero --> Setting DT_in_Triples to false.
Number of Triples that are to be computed   ...        16

 . . . . . . . . .
10% done  
20% done  
30% done  
40% done  
50% done  
60% done  
70% done  
80% done  
90% done               (      3.282 sec)
Triples timings:
Total time for T0               ...     4.061 sec
Total time for Iterative (T)    ...     0.000 sec
Total time of overall (T)       ...     4.476 sec

Triples List generation         ...     0.000 sec
TNO generation                  ...     0.745 sec
Pair density generation         ...     0.001 sec
Look up tables                  ...     0.000 sec
Generating 3-index integrals    ...     2.747 sec
  Make 4-ind.int. from 3-ind.int...     0.187 sec
  Projecting amplitudes (D + S) ...     0.094 sec
  Downprojecting integrals      ...     0.000 sec
  Energy contr. (sum over a,b,c)...     0.061 sec
Fitting ET(->0)                 ...     0.000 sec

Everything after 3-index        ...     0.535 sec

Timing details:
 TNO integrals                  ...     2.919 sec
   Reading 3-index integrals    ...     0.464 sec
   Sorting integrals            ...     0.313 sec
       Sorting integrals 1      ...     0.000 sec
       Sorting integrals 2      ...     0.191 sec
       Sorting integrals 3      ...     0.003 sec
       Sorting integrals 4      ...     0.000 sec
       Sorting integrals 5      ...     0.001 sec
       Sorting integrals 6      ...     0.117 sec
   Calculating local VM**-1/2   ...     0.001 sec
   Orthogonal. integrals        ...     0.003 sec
   Multipl. 3-index integrals   ...     2.139 sec
   All concerning IRIab (w/TNO) ...     0.056 sec

 Calculate W0/W1                ...     0.189 sec
 W 3-ext contribution           ...     0.112 sec
 W 3-int contribution           ...     0.017 sec
 Sorting W                      ...     0.050 sec

 V exchange contribution        ...     0.021 sec

 Timings for Triples without generation
     of 3-index integrals       ...     0.535 sec
       0 weak pairs             ...     0.535 sec
       1 weak pair              ...     0.000 sec
       2 weak pairs             ...     0.000 sec
       3 weak pairs             ...     0.000 sec
  Extra time for extrapolation  ...     0.000 sec

Number of Triples   (0, 1, 2, 3 weak pairs; overall):     16       0       0       0  (    16)
Number of Atoms     (0, 1, 2, 3 weak pairs; overall):   20.8     0.0     0.0     0.0  (    28)
Number of PAOs      (0, 1, 2, 3 weak pairs; overall):  632.5     0.0     0.0     0.0  (   851)
Number of AuxFcns   (0, 1, 2, 3 weak pairs; overall):  212.4     0.0     0.0     0.0  (  1828)
Number of TNOs      (0, 1, 2, 3 weak pairs         ):  110.7     0.0     0.0     0.0
Aver. Number of NTNO, Atoms, PAOs, AuxFcns / Triples:     16   110.7    20.8   632.5   212.4

Triples Correction (T)                     ...     -0.008166485
Final correlation energy                   ...     -0.261069883
E(CCSD)                                    ...    -56.472972784
E(CCSD(T))                                 ...    -56.481139269


Maximum memory used throughout the entire calculation: 736.2 MB


------------------------------------------------------------------------------- 
                                     TIMINGS                                   
------------------------------------------------------------------------------- 


Total execution time                   ...      164.946 sec

Localization of occupied MO's          ...        0.778 sec (  0.5%)
Fock Matrix Formation                  ...      107.012 sec ( 64.9%)
Global overlap, Fock, MKN matrices     ...        0.483 sec (  0.3%)
Differential overlap integrals         ...        0.351 sec (  0.2%)
Organizing maps                        ...        0.057 sec (  0.0%)
RI 3-index integral generations        ...       14.891 sec (  9.0%)
RI-PNO integral transformation         ...       14.161 sec (  8.6%)
Initial Guess                          ...        3.163 sec (  1.9%)
DIIS Solver                            ...        0.388 sec (  0.2%)
State Vector Update                    ...        0.002 sec (  0.0%)
Sigma-vector construction              ...       19.100 sec ( 11.6%)
  <D|H|D>(0-ext)                       ...        0.019 sec (  0.1% of sigma)
  <D|H|D>(2-ext Fock)                  ...        0.002 sec (  0.0% of sigma)
  <D|H|D>(2-ext)                       ...        0.893 sec (  4.7% of sigma)
  <D|H|D>(4-ext)                       ...        4.371 sec ( 22.9% of sigma)
  <D|H|D>(4-ext-corr)                  ...       12.037 sec ( 63.0% of sigma)
  CCSD doubles correction              ...        0.003 sec (  0.0% of sigma)
  <S|H|S>                              ...        0.085 sec (  0.4% of sigma)
  <S|H|D>(1-ext)                       ...        0.008 sec (  0.0% of sigma)
  <S|H|D>(3-ext)                       ...        0.050 sec (  0.3% of sigma)
  Fock-dressing                        ...        0.652 sec (  3.4% of sigma)
  Singles amplitudes                   ...        0.018 sec (  0.1% of sigma)
  (ik|jl)-dressing                     ...        0.139 sec (  0.7% of sigma)
  (ij|ab),(ia|jb)-dressing             ...        0.582 sec (  3.0% of sigma)
  Pair energies                        ...        0.003 sec (  0.0% of sigma)
Total Time for computing (T)           ...        4.480 sec (  2.7% of ALL)


-------------------------   --------------------
FINAL SINGLE POINT ENERGY       -56.481139268543
-------------------------   --------------------


                            ***************************************
                            *     ORCA property calculations      *
                            ***************************************

                                    ---------------------
                                    Active property flags
                                    ---------------------
   (+) Dipole Moment


------------------------------------------------------------------------------
                       ORCA ELECTRIC PROPERTIES CALCULATION
------------------------------------------------------------------------------

Dipole Moment Calculation                       ... on
Quadrupole Moment Calculation                   ... off
Polarizability Calculation                      ... off
GBWName                                         ... DLPNO_CP30_job5.gbw
Electron density file                           ... DLPNO_CP30_job5.scfp
The origin for moment calculation is the CENTER OF MASS  = ( 1.934071, -3.579197  3.225037)

-------------
DIPOLE MOMENT
-------------
                                X             Y             Z
Electronic contribution:      0.22496       0.07981      -0.05952
Nuclear contribution   :     -0.80154      -0.28413       0.21174
                        -----------------------------------------
Total Dipole Moment    :     -0.57657      -0.20431       0.15223
                        -----------------------------------------
Magnitude (a.u.)       :      0.63036
Magnitude (Debye)      :      1.60225



--------------------
Rotational spectrum 
--------------------
 
Rotational constants in cm-1:     9.942397     9.853218     6.260173 
Rotational constants in MHz : 298065.571184 295392.049594 187675.258258 

 Dipole components along the rotational axes: 
x,y,z [a.u.] :     0.001227     0.000265     0.630358 
x,y,z [Debye]:     0.003118     0.000674     1.602243 

 

Timings for individual modules:

Sum of individual times         ...      671.546 sec (=  11.192 min)
GTO integral calculation        ...        1.572 sec (=   0.026 min)   0.2 %
SCF iterations                  ...      503.862 sec (=   8.398 min)  75.0 %
MDCI module                     ...      166.113 sec (=   2.769 min)  24.7 %

Energy for            dimer from job 1  =   -667.299376957
Energy for         fragment from job 2  =   -610.797286364
Energy for         fragment from job 3  =    -56.480436617
Energy for            ghost from job 4  =   -610.798215671
Energy for            ghost from job 5  =    -56.481139269


Energy for fragment            dimer:   -667.299376957 Eh
Energy for fragment         fragment:   -667.277722981 Eh   13.588 kcal/mol
Energy for fragment            ghost:   -667.279354940 Eh   12.564 kcal/mol

----------------------------
REACTION ENERGIES (kcal/mol)  13.588  12.564 
----------------------------

                             ****ORCA TERMINATED NORMALLY****
TOTAL RUN TIME: 0 days 2 hours 25 minutes 47 seconds 478 msec
