
                                 *****************
                                 * O   R   C   A *
                                 *****************

                                            #,                                       
                                            ###                                      
                                            ####                                     
                                            #####                                    
                                            ######                                   
                                           ########,                                 
                                     ,,################,,,,,                         
                               ,,#################################,,                 
                          ,,##########################################,,             
                       ,#########################################, ''#####,          
                    ,#############################################,,   '####,        
                  ,##################################################,,,,####,       
                ,###########''''           ''''###############################       
              ,#####''   ,,,,##########,,,,          '''####'''          '####       
            ,##' ,,,,###########################,,,                        '##       
           ' ,,###''''                  '''############,,,                           
         ,,##''                                '''############,,,,        ,,,,,,###''
      ,#''                                            '''#######################'''  
     '                                                          ''''####''''         
             ,#######,   #######,   ,#######,      ##                                
            ,#'     '#,  ##    ##  ,#'     '#,    #''#        ######   ,####,        
            ##       ##  ##   ,#'  ##            #'  '#       #        #'  '#        
            ##       ##  #######   ##           ,######,      #####,   #    #        
            '#,     ,#'  ##    ##  '#,     ,#' ,#      #,         ##   #,  ,#        
             '#######'   ##     ##  '#######'  #'      '#     #####' # '####'        



                  #######################################################
                  #                        -***-                        #
                  #          Department of theory and spectroscopy      #
                  #    Directorship and core code : Frank Neese         #
                  #        Max Planck Institute fuer Kohlenforschung    #
                  #                Kaiser Wilhelm Platz 1               #
                  #                 D-45470 Muelheim/Ruhr               #
                  #                      Germany                        #
                  #                                                     #
                  #                  All rights reserved                #
                  #                        -***-                        #
                  #######################################################


                         Program Version 5.0.2 -  RELEASE  -


 With contributions from (in alphabetic order):
   Daniel Aravena         : Magnetic Suceptibility
   Michael Atanasov       : Ab Initio Ligand Field Theory (pilot matlab implementation)
   Alexander A. Auer      : GIAO ZORA, VPT2 properties, NMR spectrum
   Ute Becker             : Parallelization
   Giovanni Bistoni       : ED, misc. LED, open-shell LED, HFLD
   Martin Brehm           : Molecular dynamics
   Dmytro Bykov           : SCF Hessian
   Vijay G. Chilkuri      : MRCI spin determinant printing, contributions to CSF-ICE
   Dipayan Datta          : RHF DLPNO-CCSD density
   Achintya Kumar Dutta   : EOM-CC, STEOM-CC
   Dmitry Ganyushin       : Spin-Orbit,Spin-Spin,Magnetic field MRCI
   Miquel Garcia          : C-PCM and meta-GGA Hessian, CC/C-PCM, Gaussian charge scheme
   Yang Guo               : DLPNO-NEVPT2, F12-NEVPT2, CIM, IAO-localization
   Andreas Hansen         : Spin unrestricted coupled pair/coupled cluster methods
   Benjamin Helmich-Paris : MC-RPA, TRAH-SCF, COSX integrals
   Lee Huntington         : MR-EOM, pCC
   Robert Izsak           : Overlap fitted RIJCOSX, COSX-SCS-MP3, EOM
   Marcus Kettner         : VPT2
   Christian Kollmar      : KDIIS, OOCD, Brueckner-CCSD(T), CCSD density, CASPT2, CASPT2-K
   Simone Kossmann        : Meta GGA functionals, TD-DFT gradient, OOMP2, MP2 Hessian
   Martin Krupicka        : Initial AUTO-CI
   Lucas Lang             : DCDCAS
   Marvin Lechner         : AUTO-CI (C++ implementation), FIC-MRCC
   Dagmar Lenk            : GEPOL surface, SMD
   Dimitrios Liakos       : Extrapolation schemes; Compound Job, initial MDCI parallelization
   Dimitrios Manganas     : Further ROCIS development; embedding schemes
   Dimitrios Pantazis     : SARC Basis sets
   Anastasios Papadopoulos: AUTO-CI, single reference methods and gradients
   Taras Petrenko         : DFT Hessian,TD-DFT gradient, ASA, ECA, R-Raman, ABS, FL, XAS/XES, NRVS
   Peter Pinski           : DLPNO-MP2, DLPNO-MP2 Gradient
   Christoph Reimann      : Effective Core Potentials
   Marius Retegan         : Local ZFS, SOC
   Christoph Riplinger    : Optimizer, TS searches, QM/MM, DLPNO-CCSD(T), (RO)-DLPNO pert. Triples
   Tobias Risthaus        : Range-separated hybrids, TD-DFT gradient, RPA, STAB
   Michael Roemelt        : Original ROCIS implementation
   Masaaki Saitow         : Open-shell DLPNO-CCSD energy and density
   Barbara Sandhoefer     : DKH picture change effects
   Avijit Sen             : IP-ROCIS
   Kantharuban Sivalingam : CASSCF convergence, NEVPT2, FIC-MRCI
   Bernardo de Souza      : ESD, SOC TD-DFT
   Georgi Stoychev        : AutoAux, RI-MP2 NMR, DLPNO-MP2 response
   Willem Van den Heuvel  : Paramagnetic NMR
   Boris Wezisla          : Elementary symmetry handling
   Frank Wennmohs         : Technical directorship


 We gratefully acknowledge several colleagues who have allowed us to
 interface, adapt or use parts of their codes:
   Stefan Grimme, W. Hujo, H. Kruse, P. Pracht,  : VdW corrections, initial TS optimization,
                  C. Bannwarth, S. Ehlert          DFT functionals, gCP, sTDA/sTD-DF
   Ed Valeev, F. Pavosevic, A. Kumar             : LibInt (2-el integral package), F12 methods
   Garnet Chan, S. Sharma, J. Yang, R. Olivares  : DMRG
   Ulf Ekstrom                                   : XCFun DFT Library
   Mihaly Kallay                                 : mrcc  (arbitrary order and MRCC methods)
   Jiri Pittner, Ondrej Demel                    : Mk-CCSD
   Frank Weinhold                                : gennbo (NPA and NBO analysis)
   Christopher J. Cramer and Donald G. Truhlar   : smd solvation model
   Lars Goerigk                                  : TD-DFT with DH, B97 family of functionals
   V. Asgeirsson, H. Jonsson                     : NEB implementation
   FAccTs GmbH                                   : IRC, NEB, NEB-TS, DLPNO-Multilevel, CI-OPT
                                                   MM, QMMM, 2- and 3-layer-ONIOM, Crystal-QMMM,
                                                   LR-CPCM, SF, NACMEs, symmetry and pop. for TD-DFT,
                                                   nearIR, NL-DFT gradient (VV10), updates on ESD,
                                                   ML-optimized integration grids
   S Lehtola, MJT Oliveira, MAL Marques          : LibXC Library
   Liviu Ungur et al                             : ANISO software


 Your calculation uses the libint2 library for the computation of 2-el integrals
 For citations please refer to: http://libint.valeyev.net

 Your ORCA version has been built with support for libXC version: 5.1.0
 For citations please refer to: https://tddft.org/programs/libxc/

 This ORCA versions uses:
   CBLAS   interface :  Fast vector & matrix operations
   LAPACKE interface :  Fast linear algebra routines
   SCALAPACK package :  Parallel linear algebra routines
   Shared memory     :  Shared parallel matrices
   BLAS/LAPACK       :  OpenBLAS 0.3.15  USE64BITINT DYNAMIC_ARCH NO_AFFINITY Haswell SINGLE_THREADED
        Core in use  :  Haswell
   Copyright (c) 2011-2014, The OpenBLAS Project




***************************************
The coordinates will be read from file: opt_full_ref.xyz
***************************************


Your calculation utilizes the semiempirical GFN2-xTB method
Please cite in your paper:
C. Bannwarth, Ehlert S., S. Grimme,  J. Chem. Theory Comput., 15, (2019), 1652.
   

Preparing ONIOM calculation             ...         done
================================================================================

================================================================================
                                        WARNINGS
                       Please study these warnings very carefully!
================================================================================

WARNING: Gradients needed for Numerical Frequencies
  ===> : Setting RunTyp to EnGrad

WARNING: Found dipole moment calculation with XTB calculation
  ===> : Switching off dipole moment calculation


WARNING: TRAH-SCF for XTB is not implemented!
  ===> : Turning TRAH off!

================================================================================
                                       INPUT FILE
================================================================================
NAME = oniom.inp
|  1> !QM/XTB2 XTB2
|  2> !NumFreq
|  3> %pal
|  4> nprocs 28
|  5> end
|  6> %qmmm
|  7> QMAtoms { 0 1 2 6 7 8 9 10 11 18 19 20 21 22 23 33 34 35 45 46 47 51 52 53 54 55 56 72 73 74 75 76 77 81 82 83 90 91 92 108 109 110 111 112 113 114 115 116 117 118 119 132 133 134 135 136 137 138 139 140 165 166 167 177 178 179 183 184 185 198 199 200 216 217 218 225 226 227 240 241 242 243 244 245 249 250 251 261 262 263 264 265 266 267 268 269 273 274 275 285 286 287 291 292 293 321 322 323 324 325 326 363 364 365 390 391 392 399 400 401 408 409 410 420 421 422 426 427 428 435 436 437 441 442 443 471 472 473 474 475 476 483 484 485 504 505 506 522 523 524 564 565 566 567 568 569 573 574 575 582 583 584 591 592 593 597 598 599 } end 
|  8> ActiveAtoms { 0 1 2 6 7 8 9 10 11 18 19 20 21 22 23 33 34 35 45 46 47 51 52 53 54 55 56 72 73 74 75 76 77 81 82 83 90 91 92 108 109 110 111 112 113 114 115 116 117 118 119 132 133 134 135 136 137 138 139 140 165 166 167 177 178 179 183 184 185 198 199 200 216 217 218 225 226 227 240 241 242 243 244 245 249 250 251 261 262 263 264 265 266 267 268 269 273 274 275 285 286 287 291 292 293 321 322 323 324 325 326 363 364 365 390 391 392 399 400 401 408 409 410 420 421 422 426 427 428 435 436 437 441 442 443 471 472 473 474 475 476 483 484 485 504 505 506 522 523 524 564 565 566 567 568 569 573 574 575 582 583 584 591 592 593 597 598 599 } end 
|  9> ExtendActiveRegion no
| 10> end
| 11> *xyzfile 0 1 opt_full_ref.xyz 
| 12> 
| 13> 
| 14>                          ****END OF INPUT****
================================================================================

------------------------------------------------------------------------------

                             **************************
                             *    2-layered ONIOM     *
                             **************************


------------------------------------------------------------------------------




Multiscale model                       ... QM1/QM2
QM2 method                             ... XTB2
Coupling Scheme                        ... subtractive
Embedding Scheme                       ... electrostatic
PrintLevel                             ... 1
Method for determining QM2 charges     ... Hirshfeld
Charge of total system                 ... 0
Charge alteration scheme               ... Charge shifting
Scaling factor for CS scheme           ... 0.06
Gradient projection scheme             ... Lever rule
Scaling factor for QM2 charges         ... 1.00
AutoFF method                          ... XTB2
AutoFF boundary                        ... no covalent bonds
Point charges in QM calc. from MM atoms... 432
              from charge shift scheme ... 0
Printing trajectories, xyz and allxyz files:
        QMMMRegion                     ... YES
        activeRegion                   ... YES
        activeRegionExt                ... NO
        qmRegion                       ... YES
        qm2Region                      ... NO
Parameter files:
        ORCA Forcefield Filename       ... oniom_L_QM2.ORCAFF.prms.tmp
        QM-LA bond distances Filename  ... oniom.H_DIST.prms.tmp
Forcefield type                        ... ORCA
Size of different subsystems (in atoms):
Size of QMMM System                    ... 600
Size of QM2 Subsystem                  ... 432
Size of QM1 Subsystem                  ... 168
Number of link atoms                   ... 0
Size of QM1 Subsystem plus link atoms  ... 168
Size of region for optimizer           ... 168
        optimized atoms = activeRegion ... 168
        fixed atoms (none)             ... 0
Composition of different systems (atoms start counting at 0):
QM1 Subsystem                          ...   0   1   2   6   7   8   9  10  11  18 
                                            19  20  21  22  23  33  34  35  45  46 
                                            47  51  52  53  54  55  56  72  73  74 
                                            75  76  77  81  82  83  90  91  92 108 
                                           109 110 111 112 113 114 115 116 117 118 
                                           119 132 133 134 135 136 137 138 139 140 
                                           165 166 167 177 178 179 183 184 185 198 
                                           199 200 216 217 218 225 226 227 240 241 
                                           242 243 244 245 249 250 251 261 262 263 
                                           264 265 266 267 268 269 273 274 275 285 
                                           286 287 291 292 293 321 322 323 324 325 
                                           326 363 364 365 390 391 392 399 400 401 
                                           408 409 410 420 421 422 426 427 428 435 
                                           436 437 441 442 443 471 472 473 474 475 
                                           476 483 484 485 504 505 506 522 523 524 
                                           564 565 566 567 568 569 573 574 575 582 
                                           583 584 591 592 593 597 598 599 
Active atoms                           ...   0   1   2   6   7   8   9  10  11  18 
                                            19  20  21  22  23  33  34  35  45  46 
                                            47  51  52  53  54  55  56  72  73  74 
                                            75  76  77  81  82  83  90  91  92 108 
                                           109 110 111 112 113 114 115 116 117 118 
                                           119 132 133 134 135 136 137 138 139 140 
                                           165 166 167 177 178 179 183 184 185 198 
                                           199 200 216 217 218 225 226 227 240 241 
                                           242 243 244 245 249 250 251 261 262 263 
                                           264 265 266 267 268 269 273 274 275 285 
                                           286 287 291 292 293 321 322 323 324 325 
                                           326 363 364 365 390 391 392 399 400 401 
                                           408 409 410 420 421 422 426 427 428 435 
                                           436 437 441 442 443 471 472 473 474 475 
                                           476 483 484 485 504 505 506 522 523 524 
                                           564 565 566 567 568 569 573 574 575 582 
                                           583 584 591 592 593 597 598 599 

                     *******************************
                     * Energy+Gradient Calculation *
                     *******************************

                    ************************************                      
                    *       QM/   XTB2 SP Energy       *                      
                    ************************************                      


------------------------------------------------------------------------------
                          XTB2 - FULL SYSTEM                         
------------------------------------------------------------------------------
Running XTB calculation
---------------------------------   --------------------
FINAL SINGLE POINT ENERGY (L-QM2)    -1018.346688484610
---------------------------------   --------------------
------------------------------------------------------------------------------
                                  XTB2 - SMALL SYSTEM                         
------------------------------------------------------------------------------
Running XTB calculation
---------------------------------   --------------------
FINAL SINGLE POINT ENERGY (S-QM2)     -285.158142527530
---------------------------------   --------------------
------------------------------------------------------------------------------
                                QM - SMALL SYSTEM                           
------------------------------------------------------------------------------
      -----------------------------------------------------------      
     |                   =====================                   |     
     |                           x T B                           |     
     |                   =====================                   |     
     |                         S. Grimme                         |     
     |          Mulliken Center for Theoretical Chemistry        |     
     |                    University of Bonn                     |     
      -----------------------------------------------------------      

   * xtb version 6.4.0 (d4b70c2) compiled by 'ehlert@majestix' on 2021-02-01

   xtb is free software: you can redistribute it and/or modify it under
   the terms of the GNU Lesser General Public License as published by
   the Free Software Foundation, either version 3 of the License, or
   (at your option) any later version.
   
   xtb is distributed in the hope that it will be useful,
   but WITHOUT ANY WARRANTY; without even the implied warranty of
   MERCHANTABILITY or FITNESS FOR A PARTICULAR PURPOSE.  See the
   GNU Lesser General Public License for more details.
   
   Cite this work as:
   * C. Bannwarth, E. Caldeweyher, S. Ehlert, A. Hansen, P. Pracht,
     J. Seibert, S. Spicher, S. Grimme, WIREs Comput. Mol. Sci., 2020,
     e01493. DOI: 10.1002/wcms.1493
   
   for GFN2-xTB:
   * C. Bannwarth, S. Ehlert and S. Grimme., J. Chem. Theory Comput., 2019,
     15, 1652-1671. DOI: 10.1021/acs.jctc.8b01176
   for GFN1-xTB:
   * S. Grimme, C. Bannwarth, P. Shushkov, J. Chem. Theory Comput., 2017,
     13, 1989-2009. DOI: 10.1021/acs.jctc.7b00118
   for GFN0-xTB:
   * P. Pracht, E. Caldeweyher, S. Ehlert, S. Grimme, ChemRxiv, 2019, preprint.
     DOI: 10.26434/chemrxiv.8326202.v1
   for GFN-FF:
   * S. Spicher and S. Grimme, Angew. Chem. Int. Ed., 2020, 59, 15665-15673.
     DOI: 10.1002/anie.202004239
   
   for DFT-D4:
   * E. Caldeweyher, C. Bannwarth and S. Grimme, J. Chem. Phys., 2017,
     147, 034112. DOI: 10.1063/1.4993215
   * E. Caldeweyher, S. Ehlert, A. Hansen, H. Neugebauer, S. Spicher,
     C. Bannwarth and S. Grimme, J. Chem. Phys., 2019, 150, 154122.
     DOI: 10.1063/1.5090222
   * E. Caldeweyher, J.-M. Mewes, S. Ehlert and S. Grimme, Phys. Chem. Chem. Phys.
     2020, 22, 8499-8512. DOI: 10.1039/D0CP00502A
   
   for sTDA-xTB:
   * S. Grimme and C. Bannwarth, J. Chem. Phys., 2016, 145, 054103.
     DOI: 10.1063/1.4959605
   
   in the mass-spec context:
   * V. Asgeirsson, C. Bauer and S. Grimme, Chem. Sci., 2017, 8, 4879.
     DOI: 10.1039/c7sc00601b
   * J. Koopman and S. Grimme, ACS Omega 2019, 4, 12, 15120-15133.
     DOI: 10.1021/acsomega.9b02011
   
   for metadynamics refer to:
   * S. Grimme, J. Chem. Theory Comput., 2019, 155, 2847-2862
     DOI: 10.1021/acs.jctc.9b00143
   
   with help from (in alphabetical order)
   P. Atkinson, C. Bannwarth, F. Bohle, G. Brandenburg, E. Caldeweyher
   M. Checinski, S. Dohm, S. Ehlert, S. Ehrlich, I. Gerasimov, J. Koopman
   C. Lavinge, S. Lehtola, F. März, M. Müller, F. Musil, H. Neugebauer
   J. Pisarek, P. Pracht, J. Seibert, P. Shushkov, S. Spicher, M. Stahn
   T. Strunk, J. Stückrath, T. Rose, and J. Unsleber
   
 * started run on 2022/04/11 at 10:13:20.027     

           -------------------------------------------------
          |                Calculation Setup                |
           -------------------------------------------------

          program call               : /work/spantaleone/apps/orca/ORCA_5.0.2/otool_xtb oniom_XTB.xyz --grad -c 0 -u 0 -P 28 --namespace oniom --input oniom_XTB.input.tmp --acc 1.000000
          hostname                   : n3513
          calculation namespace      : oniom
          coordinate file            : oniom_XTB.xyz
          omp threads                :                    28
          number of atoms            :                   168
          number of electrons        :                   448
          charge                     :                     0
          spin                       :                   0.0
          first test random number   :      0.04237683424821

   ID    Z sym.   atoms
    1    1 H      1, 3, 4, 6, 7, 9, 10, 12, 13, 15, 16, 18, 19, 21, 22, 24,
                  25, 27, 28, 30, 31, 33, 34, 36, 37, 39, 40, 42, 43, 45, 46,
                  48, 49, 51, 52, 54, 55, 57, 58, 60, 61, 63, 64, 66, 67, 69,
                  70, 72, 73, 75, 76, 78, 79, 81, 82, 84, 85, 87, 88, 90, 91,
                  93, 94, 96, 97, 99, 100, 102, 103, 105, 106, 108, 109, 111,
                  112, 114, 115, 117, 118, 120, 121, 123, 124, 126, 127, 129,
                  130, 132, 133, 135, 136, 138, 139, 141, 142, 144, 145, 147,
                  148, 150, 151, 153, 154, 156, 157, 159, 160, 162, 163, 165,
                  166, 168
    2    8 O      2, 5, 8, 11, 14, 17, 20, 23, 26, 29, 32, 35, 38, 41, 44,
                  47, 50, 53, 56, 59, 62, 65, 68, 71, 74, 77, 80, 83, 86, 89,
                  92, 95, 98, 101, 104, 107, 110, 113, 116, 119, 122, 125,
                  128, 131, 134, 137, 140, 143, 146, 149, 152, 155, 158, 161,
                  164, 167

molecular fragmentation (1/2 indicates fragments):
111222222222222222222222222222222222222222222222222222222222222222222222
222222222222222222222222222222222222222222222222222222222222222222222222
222222222222222222222222
# atoms in fragment 1/2:     3   165
 fragment masses (1/2) :       18.02      990.84
CMA distance (Bohr)    :  10.252
constraining FC (au)   :  0.0500
########################################################################
[WARNING] Please study the warnings concerning your input carefully
-1- prog_main_parseArguments: Process number higher than OMP_NUM_THREADS, I hope you know what you are doing.
########################################################################

           -------------------------------------------------
          |                 G F N 2 - x T B                 |
           -------------------------------------------------

        Reference                      10.1021/acs.jctc.8b01176
      * Hamiltonian:
        H0-scaling (s, p, d)           1.850000    2.230000    2.230000
        zeta-weighting                 0.500000
      * Dispersion:
        s8                             2.700000
        a1                             0.520000
        a2                             5.000000
        s9                             5.000000
      * Repulsion:
        kExp                           1.500000    1.000000
        rExp                           1.000000
      * Coulomb:
        alpha                          2.000000
        third order                    shell-resolved
        anisotropic                    true
        a3                             3.000000
        a5                             4.000000
        cn-shift                       1.200000
        cn-exp                         4.000000
        max-rad                        5.000000


          ...................................................
          :                      SETUP                      :
          :.................................................:
          :  # basis functions                 336          :
          :  # atomic orbitals                 336          :
          :  # shells                          224          :
          :  # electrons                       448          :
          :  max. iterations                   250          :
          :  Hamiltonian                  GFN2-xTB          :
          :  restarted?                      false          :
          :  GBSA solvation                  false          :
          :  PC potential                     true          :
          :  -> # point charges                432          :
          :  -> sum of PC               -0.0000017     e    :
          :  electronic temp.          300.0000000     K    :
          :  accuracy                    1.0000000          :
          :  -> integral cutoff          0.2500000E+02      :
          :  -> integral neglect         0.1000000E-07      :
          :  -> SCF convergence          0.1000000E-05 Eh   :
          :  -> wf. convergence          0.1000000E-03 e    :
          :  Broyden damping             0.4000000          :
          ...................................................

 iter      E             dE          RMSdq      gap      omega  full diag
   1   -286.7656251 -0.286766E+03  0.412E+00    9.28       0.0  T
   2   -286.8202510 -0.546259E-01  0.240E+00    9.35       1.0  T
   3   -286.8319683 -0.117173E-01  0.325E-01    8.74       1.0  T
   4   -286.8349680 -0.299978E-02  0.741E-02    9.02       1.0  T
   5   -286.8351510 -0.182966E-03  0.346E-02    8.93       1.0  T
   6   -286.8351724 -0.214353E-04  0.546E-03    8.95       1.4  T
   7   -286.8351734 -0.939250E-06  0.988E-04    8.95       7.8  T
   8   -286.8351734 -0.532401E-08  0.630E-04    8.95      12.3  T

   *** convergence criteria satisfied after 8 iterations ***

         #    Occupation            Energy/Eh            Energy/eV
      -------------------------------------------------------------
         1        2.0000           -0.7132634             -19.4089
       ...           ...                  ...                  ...
       218        2.0000           -0.4267216             -11.6117
       219        2.0000           -0.4257710             -11.5858
       220        2.0000           -0.4253193             -11.5735
       221        2.0000           -0.4232264             -11.5166
       222        2.0000           -0.4214979             -11.4695
       223        2.0000           -0.4146934             -11.2844
       224        2.0000           -0.4095278             -11.1438 (HOMO)
       225                         -0.0805923              -2.1930 (LUMO)
       226                         -0.0534136              -1.4535
       227                         -0.0408415              -1.1114
       228                         -0.0262714              -0.7149
       229                         -0.0151080              -0.4111
       ...                                ...                  ...
       336                          0.3891835              10.5902
      -------------------------------------------------------------
                  HL-Gap            0.3289355 Eh            8.9508 eV
             Fermi-level           -0.2450600 Eh           -6.6684 eV

 SCC (total)                   0 d,  0 h,  0 min,  0.294 sec
 SCC setup                      ...        0 min,  0.002 sec (  0.565%)
 Dispersion                     ...        0 min,  0.006 sec (  2.014%)
 classical contributions        ...        0 min,  0.000 sec (  0.071%)
 integral evaluation            ...        0 min,  0.072 sec ( 24.584%)
 iterations                     ...        0 min,  0.145 sec ( 49.364%)
 molecular gradient             ...        0 min,  0.067 sec ( 22.795%)
 printout                       ...        0 min,  0.002 sec (  0.537%)

         :::::::::::::::::::::::::::::::::::::::::::::::::::::
         ::                     SUMMARY                     ::
         :::::::::::::::::::::::::::::::::::::::::::::::::::::
         :: total energy            -285.158142527530 Eh    ::
         :: gradient norm              0.090410038250 Eh/a0 ::
         :: HOMO-LUMO gap              8.950789950687 eV    ::
         ::.................................................::
         :: SCC energy              -286.835173385646 Eh    ::
         :: -> isotropic ES            1.831045852954 Eh    ::
         :: -> anisotropic ES         -0.292663828403 Eh    ::
         :: -> anisotropic XC         -0.027579628287 Eh    ::
         :: -> dispersion             -0.126895066106 Eh    ::
         :: repulsion energy           1.664684631164 Eh    ::
         :: add. restraining           0.000000000000 Eh    ::
         :: total charge              -0.000000000000 e     ::
         :::::::::::::::::::::::::::::::::::::::::::::::::::::


Property printout bound to 'properties.out'

           -------------------------------------------------
          | TOTAL ENERGY             -285.158142527530 Eh   |
          | GRADIENT NORM               0.090410038250 Eh/α |
          | HOMO-LUMO GAP               8.950789950687 eV   |
           -------------------------------------------------

------------------------------------------------------------------------
 * finished run on 2022/04/11 at 10:13:20.601     
------------------------------------------------------------------------
 total:
 * wall-time:     0 d,  0 h,  0 min,  0.574 sec
 *  cpu-time:     0 d,  0 h,  0 min, 15.524 sec
 * ratio c/w:    27.049 speedup
 SCF:
 * wall-time:     0 d,  0 h,  0 min,  0.302 sec
 *  cpu-time:     0 d,  0 h,  0 min,  8.426 sec
 * ratio c/w:    27.941 speedup


-------------------------   --------------------
FINAL SINGLE POINT ENERGY      -285.158142527530
-------------------------   --------------------



--------------------------------------   --------------------
FINAL SINGLE POINT ENERGY (QM/QM2)    -1018.346688484610
--------------------------------------   --------------------

                    ************************************                      
                    *QM/   XTB2 SP Gradient Calculation*                      
                    ************************************                      


------------------------------------------------------------------------------
                          XTB2 - FULL SYSTEM                         
------------------------------------------------------------------------------
Reading gradient                        ...         done
------------------------------------------------------------------------------
                                  XTB2 - SMALL SYSTEM                         
------------------------------------------------------------------------------
Reading gradient                        ...         done
------------------------------------------------------------------------------
                                     QM                                       
------------------------------------------------------------------------------


------------------
CARTESIAN GRADIENT (QM/MM)
------------------
   1   H   :    0.000002331   -0.000003876    0.000002129
   2   O   :    0.000004269    0.000002691   -0.000004287
   3   H   :    0.000001754    0.000004665   -0.000000062
   4   H   :   -0.000004499    0.000020180   -0.000014697
   5   O   :   -0.000009899   -0.000001727   -0.000024184
   6   H   :    0.000011524   -0.000010845    0.000006719
   7   H   :   -0.000000943    0.000005334   -0.000001829
   8   O   :    0.000003547    0.000004047    0.000002944
   9   H   :   -0.000002132   -0.000003462    0.000003659
  10   H   :    0.000002565   -0.000002563   -0.000000335
  11   O   :   -0.000000013    0.000002712    0.000005656
  12   H   :    0.000000046   -0.000000731    0.000006067
  13   H   :    0.000034796   -0.000040158   -0.000030245
  14   O   :    0.000024889   -0.000003801    0.000051031
  15   H   :   -0.000046077    0.000034308    0.000018517
  16   H   :   -0.000003492   -0.000001280    0.000005491
  17   O   :    0.000002586   -0.000009340    0.000000645
  18   H   :    0.000005151   -0.000000850   -0.000010483
  19   H   :    0.000009829    0.000004386   -0.000001857
  20   O   :   -0.000001051   -0.000005624   -0.000013328
  21   H   :   -0.000005191   -0.000011240   -0.000008131
  22   H   :    0.000001055   -0.000001376   -0.000003936
  23   O   :    0.000001191   -0.000004704    0.000011457
  24   H   :    0.000003980    0.000004452   -0.000003235
  25   H   :   -0.000008183    0.000000428    0.000006009
  26   O   :   -0.000005893    0.000000816    0.000000893
  27   H   :    0.000006018   -0.000005865   -0.000002536
  28   H   :    0.000000635   -0.000001572    0.000005905
  29   O   :    0.000000930   -0.000002943   -0.000004699
  30   H   :    0.000002982   -0.000001605   -0.000005674
  31   H   :   -0.000001165   -0.000010329   -0.000001756
  32   O   :    0.000001920    0.000000238    0.000005508
  33   H   :    0.000005013   -0.000002635   -0.000001160
  34   H   :    0.000003477    0.000001166    0.000003720
  35   O   :   -0.000010291    0.000006735    0.000001977
  36   H   :    0.000000075   -0.000007531    0.000003467
  37   H   :   -0.000005138   -0.000004502    0.000006531
  38   O   :    0.000006355   -0.000013450    0.000003037
  39   H   :   -0.000004076    0.000003451   -0.000013064
  40   H   :   -0.000006736    0.000002814    0.000004109
  41   O   :    0.000000603    0.000001930   -0.000005460
  42   H   :    0.000001275   -0.000014756    0.000004214
  43   H   :   -0.000006818    0.000001979   -0.000004612
  44   O   :    0.000015422    0.000005857   -0.000001806
  45   H   :    0.000003457   -0.000009791   -0.000001523
  46   H   :   -0.000004618    0.000011758   -0.000009240
  47   O   :    0.000006323    0.000001524   -0.000007920
  48   H   :    0.000000786   -0.000003270    0.000000867
  49   H   :   -0.000008163    0.000016893   -0.000000071
  50   O   :    0.000003490    0.000006024   -0.000001761
  51   H   :   -0.000008158   -0.000004852   -0.000003546
  52   H   :   -0.000010515   -0.000005495   -0.000001911
  53   O   :    0.000001022    0.000009078    0.000000123
  54   H   :    0.000012608   -0.000001565    0.000011471
  55   H   :    0.000011166    0.000005702    0.000020789
  56   O   :   -0.000017669   -0.000022982    0.000003790
  57   H   :   -0.000001020    0.000003718   -0.000031344
  58   H   :   -0.000005432   -0.000010823    0.000005251
  59   O   :    0.000006067    0.000001081    0.000002856
  60   H   :   -0.000006658    0.000000068   -0.000003835
  61   H   :    0.000000927   -0.000002578    0.000003684
  62   O   :   -0.000000114   -0.000001553    0.000005536
  63   H   :    0.000000727   -0.000007597    0.000001845
  64   H   :   -0.000007570   -0.000011467   -0.000006417
  65   O   :    0.000024669    0.000013506    0.000004285
  66   H   :   -0.000022697    0.000010032   -0.000002185
  67   H   :    0.000001434    0.000023091    0.000000108
  68   O   :   -0.000018871   -0.000006601    0.000006610
  69   H   :    0.000021736   -0.000008464   -0.000011108
  70   H   :   -0.000002241   -0.000006722    0.000008371
  71   O   :   -0.000004681    0.000007608   -0.000003462
  72   H   :    0.000010799   -0.000002365    0.000000589
  73   H   :   -0.000002815   -0.000003875    0.000010913
  74   O   :   -0.000003062    0.000004616    0.000008724
  75   H   :   -0.000000145    0.000002752   -0.000008048
  76   H   :   -0.000006303   -0.000003203    0.000002425
  77   O   :    0.000002602    0.000019289    0.000015098
  78   H   :   -0.000011498   -0.000002214    0.000005698
  79   H   :   -0.000002365   -0.000005266    0.000005047
  80   O   :    0.000005508   -0.000006541   -0.000011638
  81   H   :   -0.000002874   -0.000006347    0.000007909
  82   H   :   -0.000007409   -0.000004017    0.000004624
  83   O   :   -0.000000278    0.000000751    0.000003367
  84   H   :   -0.000004196   -0.000005320   -0.000005567
  85   H   :    0.000014187   -0.000004997    0.000008704
  86   O   :   -0.000004307   -0.000004999    0.000009217
  87   H   :    0.000000992   -0.000014617   -0.000002704
  88   H   :   -0.000003786    0.000016736    0.000000753
  89   O   :   -0.000001748   -0.000007733    0.000011863
  90   H   :   -0.000002905    0.000003211   -0.000007116
  91   H   :   -0.000011781   -0.000004536   -0.000013596
  92   O   :    0.000007178    0.000013926    0.000022893
  93   H   :    0.000009143   -0.000004301   -0.000006494
  94   H   :    0.000001898   -0.000003264    0.000009157
  95   O   :    0.000006574   -0.000000070   -0.000004203
  96   H   :    0.000004974   -0.000000225   -0.000004613
  97   H   :    0.000002289    0.000002171    0.000001826
  98   O   :   -0.000002568    0.000001398   -0.000000640
  99   H   :    0.000001523   -0.000000634    0.000006102
 100   H   :    0.000005031    0.000000879   -0.000000843
 101   O   :    0.000013758    0.000002146    0.000005376
 102   H   :    0.000003731    0.000003714   -0.000002616
 103   H   :   -0.000005892   -0.000004065    0.000001880
 104   O   :    0.000000841    0.000005851   -0.000002530
 105   H   :    0.000009395   -0.000004303    0.000012035
 106   H   :    0.000009948   -0.000008512   -0.000012427
 107   O   :   -0.000005661   -0.000005215   -0.000006663
 108   H   :    0.000000003   -0.000002360    0.000009246
 109   H   :   -0.000006005    0.000011527   -0.000003523
 110   O   :    0.000002176    0.000018300    0.000000350
 111   H   :    0.000016827    0.000000218    0.000004551
 112   H   :   -0.000000550    0.000004091   -0.000006669
 113   O   :    0.000001829    0.000009613   -0.000009405
 114   H   :    0.000005763   -0.000008536    0.000001678
 115   H   :    0.000004647   -0.000011579   -0.000006413
 116   O   :    0.000002384    0.000002592    0.000010877
 117   H   :    0.000000830    0.000006040   -0.000003125
 118   H   :   -0.000007378    0.000004044    0.000006871
 119   O   :    0.000022501   -0.000009803   -0.000007491
 120   H   :    0.000000680    0.000007332   -0.000000868
 121   H   :    0.000008090   -0.000000174    0.000000668
 122   O   :   -0.000002977   -0.000001582   -0.000008891
 123   H   :   -0.000002845   -0.000002060    0.000002683
 124   H   :   -0.000003221    0.000003364   -0.000009015
 125   O   :   -0.000002309    0.000003463   -0.000003398
 126   H   :   -0.000002537   -0.000004634   -0.000003208
 127   H   :    0.000002624   -0.000002246    0.000005508
 128   O   :   -0.000012219    0.000010578   -0.000008689
 129   H   :   -0.000001009   -0.000002021   -0.000004235
 130   H   :   -0.000008159    0.000001188   -0.000000616
 131   O   :    0.000009889    0.000001858   -0.000014308
 132   H   :    0.000011545    0.000001425    0.000007465
 133   H   :   -0.000003963    0.000012991    0.000006278
 134   O   :   -0.000007266   -0.000002405    0.000003441
 135   H   :   -0.000008286    0.000014830    0.000011894
 136   H   :    0.000004845    0.000004184   -0.000007251
 137   O   :   -0.000012067    0.000003217   -0.000006726
 138   H   :    0.000011635   -0.000002884    0.000002975
 139   H   :    0.000004358    0.000003190   -0.000007083
 140   O   :   -0.000000045    0.000004893    0.000008120
 141   H   :    0.000003063   -0.000000567    0.000004008
 142   H   :    0.000002784   -0.000004035   -0.000007020
 143   O   :    0.000000217    0.000017031    0.000001515
 144   H   :    0.000002651   -0.000006028    0.000005835
 145   H   :   -0.000011823   -0.000009590   -0.000003279
 146   O   :   -0.000006940    0.000008233    0.000002478
 147   H   :    0.000011430    0.000004526   -0.000010612
 148   H   :    0.000001761   -0.000002283    0.000000525
 149   O   :   -0.000005099    0.000007765    0.000013282
 150   H   :    0.000003585   -0.000007127   -0.000001891
 151   H   :    0.000000847   -0.000001630   -0.000002853
 152   O   :   -0.000001968    0.000002046   -0.000002255
 153   H   :   -0.000001378   -0.000000063   -0.000004218
 154   H   :   -0.000004306   -0.000001369    0.000000744
 155   O   :    0.000000472   -0.000002758    0.000004615
 156   H   :    0.000009391   -0.000005973   -0.000002361
 157   H   :   -0.000001685   -0.000007940    0.000004806
 158   O   :   -0.000001501    0.000005502   -0.000015336
 159   H   :    0.000006956    0.000001078   -0.000006825
 160   H   :   -0.000013933   -0.000008063    0.000003203
 161   O   :   -0.000003592    0.000006445   -0.000004020
 162   H   :   -0.000004248    0.000001774   -0.000006081
 163   H   :    0.000004161    0.000001209   -0.000004779
 164   O   :   -0.000001556   -0.000002103   -0.000000818
 165   H   :   -0.000000111    0.000001804    0.000005522
 166   H   :   -0.000000414   -0.000013194    0.000002072
 167   O   :   -0.000018326    0.000011991   -0.000009821
 168   H   :   -0.000001952    0.000001656    0.000002636

Norm of the cartesian gradient     ...    0.000193721
RMS gradient                       ...    0.000008629
MAX gradient                       ...    0.000051031

----------------------------------------------------------------------------
                           ORCA NUMERICAL FREQUENCIES
                              (28-process run)
----------------------------------------------------------------------------

Number of atoms                ... 168
Central differences            ... used
Number of displacements        ... 1008
Numerical increment            ... 5.000e-03 bohr
IR-spectrum generation         ... on
Raman-spectrum generation      ... off
Surface Crossing Hessian       ... off

The output will be reduced. Please look at the following files:
SCF program output             ... >oniom.lastscf
Integral program output        ... >oniom.lastint
Gradient program output        ... >oniom.lastgrad
Dipole moment program output   ... >oniom.lastmom
AutoCI program output          ... >oniom.lastautoci

List of participating nodes    ...  oniom.hostnames
	<< Calculating on displaced geometry   6 (of 1008) >>
	<< Calculating on displaced geometry  10 (of 1008) >>
	<< Calculating on displaced geometry   5 (of 1008) >>
	<< Calculating on displaced geometry  16 (of 1008) >>
	<< Calculating on displaced geometry   7 (of 1008) >>
	<< Calculating on displaced geometry   2 (of 1008) >>
	<< Calculating on displaced geometry  20 (of 1008) >>
	<< Calculating on displaced geometry  28 (of 1008) >>
	<< Calculating on displaced geometry  14 (of 1008) >>
	<< Calculating on displaced geometry  27 (of 1008) >>
	<< Calculating on displaced geometry   4 (of 1008) >>
	<< Calculating on displaced geometry  12 (of 1008) >>
	<< Calculating on displaced geometry  11 (of 1008) >>
	<< Calculating on displaced geometry  19 (of 1008) >>
	<< Calculating on displaced geometry  25 (of 1008) >>
	<< Calculating on displaced geometry  24 (of 1008) >>
	<< Calculating on displaced geometry  23 (of 1008) >>
	<< Calculating on displaced geometry   3 (of 1008) >>
	<< Calculating on displaced geometry  18 (of 1008) >>
	<< Calculating on displaced geometry   8 (of 1008) >>
	<< Calculating on displaced geometry  21 (of 1008) >>
	<< Calculating on displaced geometry  13 (of 1008) >>
	<< Calculating on displaced geometry   1 (of 1008) >>
	<< Calculating on displaced geometry  26 (of 1008) >>
	<< Calculating on displaced geometry  17 (of 1008) >>
	<< Calculating on displaced geometry  22 (of 1008) >>
	<< Calculating on displaced geometry   9 (of 1008) >>
	<< Calculating on displaced geometry  15 (of 1008) >>
	<< Calculating on displaced geometry  30 (of 1008) >>
	<< Calculating on displaced geometry  29 (of 1008) >>
	<< Calculating on displaced geometry  31 (of 1008) >>
	<< Calculating on displaced geometry  32 (of 1008) >>
	<< Calculating on displaced geometry  33 (of 1008) >>
	<< Calculating on displaced geometry  34 (of 1008) >>
	<< Calculating on displaced geometry  35 (of 1008) >>
	<< Calculating on displaced geometry  39 (of 1008) >>
	<< Calculating on displaced geometry  36 (of 1008) >>
	<< Calculating on displaced geometry  37 (of 1008) >>
	<< Calculating on displaced geometry  38 (of 1008) >>
	<< Calculating on displaced geometry  43 (of 1008) >>
	<< Calculating on displaced geometry  47 (of 1008) >>
	<< Calculating on displaced geometry  44 (of 1008) >>
	<< Calculating on displaced geometry  45 (of 1008) >>
	<< Calculating on displaced geometry  49 (of 1008) >>
	<< Calculating on displaced geometry  40 (of 1008) >>
	<< Calculating on displaced geometry  42 (of 1008) >>
	<< Calculating on displaced geometry  51 (of 1008) >>
	<< Calculating on displaced geometry  41 (of 1008) >>
	<< Calculating on displaced geometry  48 (of 1008) >>
	<< Calculating on displaced geometry  56 (of 1008) >>
	<< Calculating on displaced geometry  53 (of 1008) >>
	<< Calculating on displaced geometry  54 (of 1008) >>
	<< Calculating on displaced geometry  52 (of 1008) >>
	<< Calculating on displaced geometry  50 (of 1008) >>
	<< Calculating on displaced geometry  46 (of 1008) >>
	<< Calculating on displaced geometry  55 (of 1008) >>
	<< Calculating on displaced geometry  57 (of 1008) >>
	<< Calculating on displaced geometry  58 (of 1008) >>
	<< Calculating on displaced geometry  59 (of 1008) >>
	<< Calculating on displaced geometry  61 (of 1008) >>
	<< Calculating on displaced geometry  60 (of 1008) >>
	<< Calculating on displaced geometry  62 (of 1008) >>
	<< Calculating on displaced geometry  63 (of 1008) >>
	<< Calculating on displaced geometry  64 (of 1008) >>
	<< Calculating on displaced geometry  65 (of 1008) >>
	<< Calculating on displaced geometry  66 (of 1008) >>
	<< Calculating on displaced geometry  67 (of 1008) >>
	<< Calculating on displaced geometry  68 (of 1008) >>
	<< Calculating on displaced geometry  69 (of 1008) >>
	<< Calculating on displaced geometry  70 (of 1008) >>
	<< Calculating on displaced geometry  71 (of 1008) >>
	<< Calculating on displaced geometry  73 (of 1008) >>
	<< Calculating on displaced geometry  72 (of 1008) >>
	<< Calculating on displaced geometry  74 (of 1008) >>
	<< Calculating on displaced geometry  77 (of 1008) >>
	<< Calculating on displaced geometry  75 (of 1008) >>
	<< Calculating on displaced geometry  76 (of 1008) >>
	<< Calculating on displaced geometry  78 (of 1008) >>
	<< Calculating on displaced geometry  83 (of 1008) >>
	<< Calculating on displaced geometry  84 (of 1008) >>
	<< Calculating on displaced geometry  79 (of 1008) >>
	<< Calculating on displaced geometry  81 (of 1008) >>
	<< Calculating on displaced geometry  82 (of 1008) >>
	<< Calculating on displaced geometry  80 (of 1008) >>
	<< Calculating on displaced geometry  85 (of 1008) >>
	<< Calculating on displaced geometry  86 (of 1008) >>
	<< Calculating on displaced geometry  87 (of 1008) >>
	<< Calculating on displaced geometry  89 (of 1008) >>
	<< Calculating on displaced geometry  90 (of 1008) >>
	<< Calculating on displaced geometry  91 (of 1008) >>
	<< Calculating on displaced geometry  88 (of 1008) >>
	<< Calculating on displaced geometry  92 (of 1008) >>
	<< Calculating on displaced geometry  93 (of 1008) >>
	<< Calculating on displaced geometry  94 (of 1008) >>
	<< Calculating on displaced geometry  96 (of 1008) >>
	<< Calculating on displaced geometry  97 (of 1008) >>
	<< Calculating on displaced geometry  95 (of 1008) >>
	<< Calculating on displaced geometry  98 (of 1008) >>
	<< Calculating on displaced geometry  99 (of 1008) >>
	<< Calculating on displaced geometry 100 (of 1008) >>
	<< Calculating on displaced geometry 101 (of 1008) >>
	<< Calculating on displaced geometry 102 (of 1008) >>
	<< Calculating on displaced geometry 103 (of 1008) >>
	<< Calculating on displaced geometry 104 (of 1008) >>
	<< Calculating on displaced geometry 105 (of 1008) >>
	<< Calculating on displaced geometry 108 (of 1008) >>
	<< Calculating on displaced geometry 107 (of 1008) >>
	<< Calculating on displaced geometry 106 (of 1008) >>
	<< Calculating on displaced geometry 110 (of 1008) >>
	<< Calculating on displaced geometry 109 (of 1008) >>
	<< Calculating on displaced geometry 111 (of 1008) >>
	<< Calculating on displaced geometry 112 (of 1008) >>
	<< Calculating on displaced geometry 114 (of 1008) >>
	<< Calculating on displaced geometry 113 (of 1008) >>
	<< Calculating on displaced geometry 115 (of 1008) >>
	<< Calculating on displaced geometry 116 (of 1008) >>
	<< Calculating on displaced geometry 117 (of 1008) >>
	<< Calculating on displaced geometry 118 (of 1008) >>
	<< Calculating on displaced geometry 119 (of 1008) >>
	<< Calculating on displaced geometry 120 (of 1008) >>
	<< Calculating on displaced geometry 121 (of 1008) >>
	<< Calculating on displaced geometry 122 (of 1008) >>
	<< Calculating on displaced geometry 123 (of 1008) >>
	<< Calculating on displaced geometry 124 (of 1008) >>
	<< Calculating on displaced geometry 125 (of 1008) >>
	<< Calculating on displaced geometry 127 (of 1008) >>
	<< Calculating on displaced geometry 126 (of 1008) >>
	<< Calculating on displaced geometry 128 (of 1008) >>
	<< Calculating on displaced geometry 130 (of 1008) >>
	<< Calculating on displaced geometry 129 (of 1008) >>
	<< Calculating on displaced geometry 131 (of 1008) >>
	<< Calculating on displaced geometry 132 (of 1008) >>
	<< Calculating on displaced geometry 135 (of 1008) >>
	<< Calculating on displaced geometry 134 (of 1008) >>
	<< Calculating on displaced geometry 133 (of 1008) >>
	<< Calculating on displaced geometry 136 (of 1008) >>
	<< Calculating on displaced geometry 138 (of 1008) >>
	<< Calculating on displaced geometry 139 (of 1008) >>
	<< Calculating on displaced geometry 137 (of 1008) >>
	<< Calculating on displaced geometry 140 (of 1008) >>
	<< Calculating on displaced geometry 141 (of 1008) >>
	<< Calculating on displaced geometry 142 (of 1008) >>
	<< Calculating on displaced geometry 143 (of 1008) >>
	<< Calculating on displaced geometry 144 (of 1008) >>
	<< Calculating on displaced geometry 145 (of 1008) >>
	<< Calculating on displaced geometry 146 (of 1008) >>
	<< Calculating on displaced geometry 147 (of 1008) >>
	<< Calculating on displaced geometry 148 (of 1008) >>
	<< Calculating on displaced geometry 149 (of 1008) >>
	<< Calculating on displaced geometry 150 (of 1008) >>
	<< Calculating on displaced geometry 151 (of 1008) >>
	<< Calculating on displaced geometry 152 (of 1008) >>
	<< Calculating on displaced geometry 153 (of 1008) >>
	<< Calculating on displaced geometry 156 (of 1008) >>
	<< Calculating on displaced geometry 154 (of 1008) >>
	<< Calculating on displaced geometry 155 (of 1008) >>
	<< Calculating on displaced geometry 157 (of 1008) >>
	<< Calculating on displaced geometry 158 (of 1008) >>
	<< Calculating on displaced geometry 159 (of 1008) >>
	<< Calculating on displaced geometry 161 (of 1008) >>
	<< Calculating on displaced geometry 160 (of 1008) >>
	<< Calculating on displaced geometry 164 (of 1008) >>
	<< Calculating on displaced geometry 163 (of 1008) >>
	<< Calculating on displaced geometry 162 (of 1008) >>
	<< Calculating on displaced geometry 165 (of 1008) >>
	<< Calculating on displaced geometry 166 (of 1008) >>
	<< Calculating on displaced geometry 168 (of 1008) >>
	<< Calculating on displaced geometry 167 (of 1008) >>
	<< Calculating on displaced geometry 169 (of 1008) >>
	<< Calculating on displaced geometry 170 (of 1008) >>
	<< Calculating on displaced geometry 173 (of 1008) >>
	<< Calculating on displaced geometry 171 (of 1008) >>
	<< Calculating on displaced geometry 172 (of 1008) >>
	<< Calculating on displaced geometry 174 (of 1008) >>
	<< Calculating on displaced geometry 176 (of 1008) >>
	<< Calculating on displaced geometry 175 (of 1008) >>
	<< Calculating on displaced geometry 178 (of 1008) >>
	<< Calculating on displaced geometry 177 (of 1008) >>
	<< Calculating on displaced geometry 181 (of 1008) >>
	<< Calculating on displaced geometry 179 (of 1008) >>
	<< Calculating on displaced geometry 183 (of 1008) >>
	<< Calculating on displaced geometry 180 (of 1008) >>
	<< Calculating on displaced geometry 182 (of 1008) >>
	<< Calculating on displaced geometry 184 (of 1008) >>
	<< Calculating on displaced geometry 185 (of 1008) >>
	<< Calculating on displaced geometry 186 (of 1008) >>
	<< Calculating on displaced geometry 188 (of 1008) >>
	<< Calculating on displaced geometry 189 (of 1008) >>
	<< Calculating on displaced geometry 191 (of 1008) >>
	<< Calculating on displaced geometry 190 (of 1008) >>
	<< Calculating on displaced geometry 192 (of 1008) >>
	<< Calculating on displaced geometry 187 (of 1008) >>
	<< Calculating on displaced geometry 193 (of 1008) >>
	<< Calculating on displaced geometry 194 (of 1008) >>
	<< Calculating on displaced geometry 195 (of 1008) >>
	<< Calculating on displaced geometry 196 (of 1008) >>
	<< Calculating on displaced geometry 197 (of 1008) >>
	<< Calculating on displaced geometry 198 (of 1008) >>
	<< Calculating on displaced geometry 200 (of 1008) >>
	<< Calculating on displaced geometry 201 (of 1008) >>
	<< Calculating on displaced geometry 199 (of 1008) >>
	<< Calculating on displaced geometry 203 (of 1008) >>
	<< Calculating on displaced geometry 202 (of 1008) >>
	<< Calculating on displaced geometry 204 (of 1008) >>
	<< Calculating on displaced geometry 205 (of 1008) >>
	<< Calculating on displaced geometry 207 (of 1008) >>
	<< Calculating on displaced geometry 206 (of 1008) >>
	<< Calculating on displaced geometry 208 (of 1008) >>
	<< Calculating on displaced geometry 211 (of 1008) >>
	<< Calculating on displaced geometry 210 (of 1008) >>
	<< Calculating on displaced geometry 212 (of 1008) >>
	<< Calculating on displaced geometry 209 (of 1008) >>
	<< Calculating on displaced geometry 213 (of 1008) >>
	<< Calculating on displaced geometry 214 (of 1008) >>
	<< Calculating on displaced geometry 215 (of 1008) >>
	<< Calculating on displaced geometry 216 (of 1008) >>
	<< Calculating on displaced geometry 218 (of 1008) >>
	<< Calculating on displaced geometry 217 (of 1008) >>
	<< Calculating on displaced geometry 219 (of 1008) >>
	<< Calculating on displaced geometry 220 (of 1008) >>
	<< Calculating on displaced geometry 222 (of 1008) >>
	<< Calculating on displaced geometry 223 (of 1008) >>
	<< Calculating on displaced geometry 224 (of 1008) >>
	<< Calculating on displaced geometry 221 (of 1008) >>
	<< Calculating on displaced geometry 225 (of 1008) >>
	<< Calculating on displaced geometry 226 (of 1008) >>
	<< Calculating on displaced geometry 227 (of 1008) >>
	<< Calculating on displaced geometry 229 (of 1008) >>
	<< Calculating on displaced geometry 228 (of 1008) >>
	<< Calculating on displaced geometry 230 (of 1008) >>
	<< Calculating on displaced geometry 231 (of 1008) >>
	<< Calculating on displaced geometry 232 (of 1008) >>
	<< Calculating on displaced geometry 233 (of 1008) >>
	<< Calculating on displaced geometry 234 (of 1008) >>
	<< Calculating on displaced geometry 235 (of 1008) >>
	<< Calculating on displaced geometry 236 (of 1008) >>
	<< Calculating on displaced geometry 237 (of 1008) >>
	<< Calculating on displaced geometry 238 (of 1008) >>
	<< Calculating on displaced geometry 239 (of 1008) >>
	<< Calculating on displaced geometry 240 (of 1008) >>
	<< Calculating on displaced geometry 241 (of 1008) >>
	<< Calculating on displaced geometry 242 (of 1008) >>
	<< Calculating on displaced geometry 243 (of 1008) >>
	<< Calculating on displaced geometry 244 (of 1008) >>
	<< Calculating on displaced geometry 245 (of 1008) >>
	<< Calculating on displaced geometry 246 (of 1008) >>
	<< Calculating on displaced geometry 248 (of 1008) >>
	<< Calculating on displaced geometry 247 (of 1008) >>
	<< Calculating on displaced geometry 250 (of 1008) >>
	<< Calculating on displaced geometry 251 (of 1008) >>
	<< Calculating on displaced geometry 249 (of 1008) >>
	<< Calculating on displaced geometry 252 (of 1008) >>
	<< Calculating on displaced geometry 253 (of 1008) >>
	<< Calculating on displaced geometry 254 (of 1008) >>
	<< Calculating on displaced geometry 255 (of 1008) >>
	<< Calculating on displaced geometry 257 (of 1008) >>
	<< Calculating on displaced geometry 258 (of 1008) >>
	<< Calculating on displaced geometry 256 (of 1008) >>
	<< Calculating on displaced geometry 259 (of 1008) >>
	<< Calculating on displaced geometry 260 (of 1008) >>
	<< Calculating on displaced geometry 262 (of 1008) >>
	<< Calculating on displaced geometry 261 (of 1008) >>
	<< Calculating on displaced geometry 263 (of 1008) >>
	<< Calculating on displaced geometry 264 (of 1008) >>
	<< Calculating on displaced geometry 265 (of 1008) >>
	<< Calculating on displaced geometry 266 (of 1008) >>
	<< Calculating on displaced geometry 268 (of 1008) >>
	<< Calculating on displaced geometry 269 (of 1008) >>
	<< Calculating on displaced geometry 270 (of 1008) >>
	<< Calculating on displaced geometry 267 (of 1008) >>
	<< Calculating on displaced geometry 271 (of 1008) >>
	<< Calculating on displaced geometry 272 (of 1008) >>
	<< Calculating on displaced geometry 273 (of 1008) >>
	<< Calculating on displaced geometry 274 (of 1008) >>
	<< Calculating on displaced geometry 275 (of 1008) >>
	<< Calculating on displaced geometry 276 (of 1008) >>
	<< Calculating on displaced geometry 279 (of 1008) >>
	<< Calculating on displaced geometry 278 (of 1008) >>
	<< Calculating on displaced geometry 277 (of 1008) >>
	<< Calculating on displaced geometry 280 (of 1008) >>
	<< Calculating on displaced geometry 281 (of 1008) >>
	<< Calculating on displaced geometry 282 (of 1008) >>
	<< Calculating on displaced geometry 283 (of 1008) >>
	<< Calculating on displaced geometry 284 (of 1008) >>
	<< Calculating on displaced geometry 285 (of 1008) >>
	<< Calculating on displaced geometry 286 (of 1008) >>
	<< Calculating on displaced geometry 287 (of 1008) >>
	<< Calculating on displaced geometry 288 (of 1008) >>
	<< Calculating on displaced geometry 291 (of 1008) >>
	<< Calculating on displaced geometry 290 (of 1008) >>
	<< Calculating on displaced geometry 289 (of 1008) >>
	<< Calculating on displaced geometry 292 (of 1008) >>
	<< Calculating on displaced geometry 293 (of 1008) >>
	<< Calculating on displaced geometry 295 (of 1008) >>
	<< Calculating on displaced geometry 294 (of 1008) >>
	<< Calculating on displaced geometry 297 (of 1008) >>
	<< Calculating on displaced geometry 298 (of 1008) >>
	<< Calculating on displaced geometry 296 (of 1008) >>
	<< Calculating on displaced geometry 299 (of 1008) >>
	<< Calculating on displaced geometry 300 (of 1008) >>
	<< Calculating on displaced geometry 301 (of 1008) >>
	<< Calculating on displaced geometry 303 (of 1008) >>
	<< Calculating on displaced geometry 302 (of 1008) >>
	<< Calculating on displaced geometry 304 (of 1008) >>
	<< Calculating on displaced geometry 306 (of 1008) >>
	<< Calculating on displaced geometry 305 (of 1008) >>
	<< Calculating on displaced geometry 308 (of 1008) >>
	<< Calculating on displaced geometry 307 (of 1008) >>
	<< Calculating on displaced geometry 309 (of 1008) >>
	<< Calculating on displaced geometry 310 (of 1008) >>
	<< Calculating on displaced geometry 311 (of 1008) >>
	<< Calculating on displaced geometry 312 (of 1008) >>
	<< Calculating on displaced geometry 314 (of 1008) >>
	<< Calculating on displaced geometry 315 (of 1008) >>
	<< Calculating on displaced geometry 313 (of 1008) >>
	<< Calculating on displaced geometry 316 (of 1008) >>
	<< Calculating on displaced geometry 318 (of 1008) >>
	<< Calculating on displaced geometry 317 (of 1008) >>
	<< Calculating on displaced geometry 319 (of 1008) >>
	<< Calculating on displaced geometry 320 (of 1008) >>
	<< Calculating on displaced geometry 321 (of 1008) >>
	<< Calculating on displaced geometry 322 (of 1008) >>
	<< Calculating on displaced geometry 323 (of 1008) >>
	<< Calculating on displaced geometry 324 (of 1008) >>
	<< Calculating on displaced geometry 325 (of 1008) >>
	<< Calculating on displaced geometry 326 (of 1008) >>
	<< Calculating on displaced geometry 327 (of 1008) >>
	<< Calculating on displaced geometry 328 (of 1008) >>
	<< Calculating on displaced geometry 330 (of 1008) >>
	<< Calculating on displaced geometry 329 (of 1008) >>
	<< Calculating on displaced geometry 331 (of 1008) >>
	<< Calculating on displaced geometry 333 (of 1008) >>
	<< Calculating on displaced geometry 332 (of 1008) >>
	<< Calculating on displaced geometry 334 (of 1008) >>
	<< Calculating on displaced geometry 335 (of 1008) >>
	<< Calculating on displaced geometry 336 (of 1008) >>
	<< Calculating on displaced geometry 337 (of 1008) >>
	<< Calculating on displaced geometry 338 (of 1008) >>
	<< Calculating on displaced geometry 339 (of 1008) >>
	<< Calculating on displaced geometry 340 (of 1008) >>
	<< Calculating on displaced geometry 341 (of 1008) >>
	<< Calculating on displaced geometry 342 (of 1008) >>
	<< Calculating on displaced geometry 343 (of 1008) >>
	<< Calculating on displaced geometry 344 (of 1008) >>
	<< Calculating on displaced geometry 345 (of 1008) >>
	<< Calculating on displaced geometry 346 (of 1008) >>
	<< Calculating on displaced geometry 347 (of 1008) >>
	<< Calculating on displaced geometry 348 (of 1008) >>
	<< Calculating on displaced geometry 349 (of 1008) >>
	<< Calculating on displaced geometry 350 (of 1008) >>
	<< Calculating on displaced geometry 351 (of 1008) >>
	<< Calculating on displaced geometry 352 (of 1008) >>
	<< Calculating on displaced geometry 353 (of 1008) >>
	<< Calculating on displaced geometry 354 (of 1008) >>
	<< Calculating on displaced geometry 355 (of 1008) >>
	<< Calculating on displaced geometry 356 (of 1008) >>
	<< Calculating on displaced geometry 358 (of 1008) >>
	<< Calculating on displaced geometry 360 (of 1008) >>
	<< Calculating on displaced geometry 359 (of 1008) >>
	<< Calculating on displaced geometry 357 (of 1008) >>
	<< Calculating on displaced geometry 362 (of 1008) >>
	<< Calculating on displaced geometry 361 (of 1008) >>
	<< Calculating on displaced geometry 363 (of 1008) >>
	<< Calculating on displaced geometry 364 (of 1008) >>
	<< Calculating on displaced geometry 365 (of 1008) >>
	<< Calculating on displaced geometry 366 (of 1008) >>
	<< Calculating on displaced geometry 367 (of 1008) >>
	<< Calculating on displaced geometry 368 (of 1008) >>
	<< Calculating on displaced geometry 369 (of 1008) >>
	<< Calculating on displaced geometry 370 (of 1008) >>
	<< Calculating on displaced geometry 372 (of 1008) >>
	<< Calculating on displaced geometry 373 (of 1008) >>
	<< Calculating on displaced geometry 371 (of 1008) >>
	<< Calculating on displaced geometry 374 (of 1008) >>
	<< Calculating on displaced geometry 375 (of 1008) >>
	<< Calculating on displaced geometry 378 (of 1008) >>
	<< Calculating on displaced geometry 377 (of 1008) >>
	<< Calculating on displaced geometry 376 (of 1008) >>
	<< Calculating on displaced geometry 380 (of 1008) >>
	<< Calculating on displaced geometry 379 (of 1008) >>
	<< Calculating on displaced geometry 381 (of 1008) >>
	<< Calculating on displaced geometry 382 (of 1008) >>
	<< Calculating on displaced geometry 383 (of 1008) >>
	<< Calculating on displaced geometry 384 (of 1008) >>
	<< Calculating on displaced geometry 385 (of 1008) >>
	<< Calculating on displaced geometry 386 (of 1008) >>
	<< Calculating on displaced geometry 387 (of 1008) >>
	<< Calculating on displaced geometry 388 (of 1008) >>
	<< Calculating on displaced geometry 389 (of 1008) >>
	<< Calculating on displaced geometry 390 (of 1008) >>
	<< Calculating on displaced geometry 392 (of 1008) >>
	<< Calculating on displaced geometry 391 (of 1008) >>
	<< Calculating on displaced geometry 394 (of 1008) >>
	<< Calculating on displaced geometry 393 (of 1008) >>
	<< Calculating on displaced geometry 395 (of 1008) >>
	<< Calculating on displaced geometry 396 (of 1008) >>
	<< Calculating on displaced geometry 397 (of 1008) >>
	<< Calculating on displaced geometry 399 (of 1008) >>
	<< Calculating on displaced geometry 401 (of 1008) >>
	<< Calculating on displaced geometry 398 (of 1008) >>
	<< Calculating on displaced geometry 400 (of 1008) >>
	<< Calculating on displaced geometry 402 (of 1008) >>
	<< Calculating on displaced geometry 403 (of 1008) >>
	<< Calculating on displaced geometry 404 (of 1008) >>
	<< Calculating on displaced geometry 405 (of 1008) >>
	<< Calculating on displaced geometry 406 (of 1008) >>
	<< Calculating on displaced geometry 408 (of 1008) >>
	<< Calculating on displaced geometry 409 (of 1008) >>
	<< Calculating on displaced geometry 407 (of 1008) >>
	<< Calculating on displaced geometry 410 (of 1008) >>
	<< Calculating on displaced geometry 411 (of 1008) >>
	<< Calculating on displaced geometry 412 (of 1008) >>
	<< Calculating on displaced geometry 413 (of 1008) >>
	<< Calculating on displaced geometry 414 (of 1008) >>
	<< Calculating on displaced geometry 415 (of 1008) >>
	<< Calculating on displaced geometry 416 (of 1008) >>
	<< Calculating on displaced geometry 417 (of 1008) >>
	<< Calculating on displaced geometry 418 (of 1008) >>
	<< Calculating on displaced geometry 419 (of 1008) >>
	<< Calculating on displaced geometry 420 (of 1008) >>
	<< Calculating on displaced geometry 422 (of 1008) >>
	<< Calculating on displaced geometry 421 (of 1008) >>
	<< Calculating on displaced geometry 423 (of 1008) >>
	<< Calculating on displaced geometry 424 (of 1008) >>
	<< Calculating on displaced geometry 425 (of 1008) >>
	<< Calculating on displaced geometry 426 (of 1008) >>
	<< Calculating on displaced geometry 428 (of 1008) >>
	<< Calculating on displaced geometry 429 (of 1008) >>
	<< Calculating on displaced geometry 430 (of 1008) >>
	<< Calculating on displaced geometry 427 (of 1008) >>
	<< Calculating on displaced geometry 431 (of 1008) >>
	<< Calculating on displaced geometry 432 (of 1008) >>
	<< Calculating on displaced geometry 433 (of 1008) >>
	<< Calculating on displaced geometry 434 (of 1008) >>
	<< Calculating on displaced geometry 436 (of 1008) >>
	<< Calculating on displaced geometry 435 (of 1008) >>
	<< Calculating on displaced geometry 437 (of 1008) >>
	<< Calculating on displaced geometry 438 (of 1008) >>
	<< Calculating on displaced geometry 439 (of 1008) >>
	<< Calculating on displaced geometry 440 (of 1008) >>
	<< Calculating on displaced geometry 441 (of 1008) >>
	<< Calculating on displaced geometry 442 (of 1008) >>
	<< Calculating on displaced geometry 443 (of 1008) >>
	<< Calculating on displaced geometry 444 (of 1008) >>
	<< Calculating on displaced geometry 445 (of 1008) >>
	<< Calculating on displaced geometry 446 (of 1008) >>
	<< Calculating on displaced geometry 447 (of 1008) >>
	<< Calculating on displaced geometry 448 (of 1008) >>
	<< Calculating on displaced geometry 449 (of 1008) >>
	<< Calculating on displaced geometry 450 (of 1008) >>
	<< Calculating on displaced geometry 451 (of 1008) >>
	<< Calculating on displaced geometry 452 (of 1008) >>
	<< Calculating on displaced geometry 453 (of 1008) >>
	<< Calculating on displaced geometry 454 (of 1008) >>
	<< Calculating on displaced geometry 455 (of 1008) >>
	<< Calculating on displaced geometry 457 (of 1008) >>
	<< Calculating on displaced geometry 456 (of 1008) >>
	<< Calculating on displaced geometry 458 (of 1008) >>
	<< Calculating on displaced geometry 459 (of 1008) >>
	<< Calculating on displaced geometry 460 (of 1008) >>
	<< Calculating on displaced geometry 463 (of 1008) >>
	<< Calculating on displaced geometry 464 (of 1008) >>
	<< Calculating on displaced geometry 461 (of 1008) >>
	<< Calculating on displaced geometry 462 (of 1008) >>
	<< Calculating on displaced geometry 465 (of 1008) >>
	<< Calculating on displaced geometry 466 (of 1008) >>
	<< Calculating on displaced geometry 467 (of 1008) >>
	<< Calculating on displaced geometry 468 (of 1008) >>
	<< Calculating on displaced geometry 469 (of 1008) >>
	<< Calculating on displaced geometry 470 (of 1008) >>
	<< Calculating on displaced geometry 471 (of 1008) >>
	<< Calculating on displaced geometry 472 (of 1008) >>
	<< Calculating on displaced geometry 473 (of 1008) >>
	<< Calculating on displaced geometry 474 (of 1008) >>
	<< Calculating on displaced geometry 475 (of 1008) >>
	<< Calculating on displaced geometry 476 (of 1008) >>
	<< Calculating on displaced geometry 477 (of 1008) >>
	<< Calculating on displaced geometry 478 (of 1008) >>
	<< Calculating on displaced geometry 479 (of 1008) >>
	<< Calculating on displaced geometry 480 (of 1008) >>
	<< Calculating on displaced geometry 481 (of 1008) >>
	<< Calculating on displaced geometry 482 (of 1008) >>
	<< Calculating on displaced geometry 483 (of 1008) >>
	<< Calculating on displaced geometry 485 (of 1008) >>
	<< Calculating on displaced geometry 484 (of 1008) >>
	<< Calculating on displaced geometry 486 (of 1008) >>
	<< Calculating on displaced geometry 487 (of 1008) >>
	<< Calculating on displaced geometry 488 (of 1008) >>
	<< Calculating on displaced geometry 489 (of 1008) >>
	<< Calculating on displaced geometry 490 (of 1008) >>
	<< Calculating on displaced geometry 491 (of 1008) >>
	<< Calculating on displaced geometry 492 (of 1008) >>
	<< Calculating on displaced geometry 493 (of 1008) >>
	<< Calculating on displaced geometry 494 (of 1008) >>
	<< Calculating on displaced geometry 495 (of 1008) >>
	<< Calculating on displaced geometry 496 (of 1008) >>
	<< Calculating on displaced geometry 497 (of 1008) >>
	<< Calculating on displaced geometry 498 (of 1008) >>
	<< Calculating on displaced geometry 499 (of 1008) >>
	<< Calculating on displaced geometry 500 (of 1008) >>
	<< Calculating on displaced geometry 501 (of 1008) >>
	<< Calculating on displaced geometry 503 (of 1008) >>
	<< Calculating on displaced geometry 502 (of 1008) >>
	<< Calculating on displaced geometry 504 (of 1008) >>
	<< Calculating on displaced geometry 505 (of 1008) >>
	<< Calculating on displaced geometry 506 (of 1008) >>
	<< Calculating on displaced geometry 507 (of 1008) >>
	<< Calculating on displaced geometry 508 (of 1008) >>
	<< Calculating on displaced geometry 509 (of 1008) >>
	<< Calculating on displaced geometry 510 (of 1008) >>
	<< Calculating on displaced geometry 511 (of 1008) >>
	<< Calculating on displaced geometry 512 (of 1008) >>
	<< Calculating on displaced geometry 513 (of 1008) >>
	<< Calculating on displaced geometry 514 (of 1008) >>
	<< Calculating on displaced geometry 515 (of 1008) >>
	<< Calculating on displaced geometry 516 (of 1008) >>
	<< Calculating on displaced geometry 517 (of 1008) >>
	<< Calculating on displaced geometry 518 (of 1008) >>
	<< Calculating on displaced geometry 519 (of 1008) >>
	<< Calculating on displaced geometry 520 (of 1008) >>
	<< Calculating on displaced geometry 522 (of 1008) >>
	<< Calculating on displaced geometry 523 (of 1008) >>
	<< Calculating on displaced geometry 521 (of 1008) >>
	<< Calculating on displaced geometry 525 (of 1008) >>
	<< Calculating on displaced geometry 524 (of 1008) >>
	<< Calculating on displaced geometry 527 (of 1008) >>
	<< Calculating on displaced geometry 526 (of 1008) >>
	<< Calculating on displaced geometry 528 (of 1008) >>
	<< Calculating on displaced geometry 531 (of 1008) >>
	<< Calculating on displaced geometry 530 (of 1008) >>
	<< Calculating on displaced geometry 532 (of 1008) >>
	<< Calculating on displaced geometry 529 (of 1008) >>
	<< Calculating on displaced geometry 533 (of 1008) >>
	<< Calculating on displaced geometry 534 (of 1008) >>
	<< Calculating on displaced geometry 535 (of 1008) >>
	<< Calculating on displaced geometry 536 (of 1008) >>
	<< Calculating on displaced geometry 537 (of 1008) >>
	<< Calculating on displaced geometry 538 (of 1008) >>
	<< Calculating on displaced geometry 539 (of 1008) >>
	<< Calculating on displaced geometry 540 (of 1008) >>
	<< Calculating on displaced geometry 542 (of 1008) >>
	<< Calculating on displaced geometry 543 (of 1008) >>
	<< Calculating on displaced geometry 541 (of 1008) >>
	<< Calculating on displaced geometry 544 (of 1008) >>
	<< Calculating on displaced geometry 545 (of 1008) >>
	<< Calculating on displaced geometry 546 (of 1008) >>
	<< Calculating on displaced geometry 548 (of 1008) >>
	<< Calculating on displaced geometry 547 (of 1008) >>
	<< Calculating on displaced geometry 549 (of 1008) >>
	<< Calculating on displaced geometry 550 (of 1008) >>
	<< Calculating on displaced geometry 552 (of 1008) >>
	<< Calculating on displaced geometry 551 (of 1008) >>
	<< Calculating on displaced geometry 554 (of 1008) >>
	<< Calculating on displaced geometry 555 (of 1008) >>
	<< Calculating on displaced geometry 553 (of 1008) >>
	<< Calculating on displaced geometry 556 (of 1008) >>
	<< Calculating on displaced geometry 557 (of 1008) >>
	<< Calculating on displaced geometry 558 (of 1008) >>
	<< Calculating on displaced geometry 559 (of 1008) >>
	<< Calculating on displaced geometry 560 (of 1008) >>
	<< Calculating on displaced geometry 561 (of 1008) >>
	<< Calculating on displaced geometry 562 (of 1008) >>
	<< Calculating on displaced geometry 563 (of 1008) >>
	<< Calculating on displaced geometry 564 (of 1008) >>
	<< Calculating on displaced geometry 565 (of 1008) >>
	<< Calculating on displaced geometry 566 (of 1008) >>
	<< Calculating on displaced geometry 567 (of 1008) >>
	<< Calculating on displaced geometry 568 (of 1008) >>
	<< Calculating on displaced geometry 569 (of 1008) >>
	<< Calculating on displaced geometry 570 (of 1008) >>
	<< Calculating on displaced geometry 571 (of 1008) >>
	<< Calculating on displaced geometry 572 (of 1008) >>
	<< Calculating on displaced geometry 573 (of 1008) >>
	<< Calculating on displaced geometry 574 (of 1008) >>
	<< Calculating on displaced geometry 576 (of 1008) >>
	<< Calculating on displaced geometry 577 (of 1008) >>
	<< Calculating on displaced geometry 575 (of 1008) >>
	<< Calculating on displaced geometry 578 (of 1008) >>
	<< Calculating on displaced geometry 579 (of 1008) >>
	<< Calculating on displaced geometry 580 (of 1008) >>
	<< Calculating on displaced geometry 581 (of 1008) >>
	<< Calculating on displaced geometry 582 (of 1008) >>
	<< Calculating on displaced geometry 583 (of 1008) >>
	<< Calculating on displaced geometry 584 (of 1008) >>
	<< Calculating on displaced geometry 585 (of 1008) >>
	<< Calculating on displaced geometry 586 (of 1008) >>
	<< Calculating on displaced geometry 587 (of 1008) >>
	<< Calculating on displaced geometry 588 (of 1008) >>
	<< Calculating on displaced geometry 589 (of 1008) >>
	<< Calculating on displaced geometry 590 (of 1008) >>
	<< Calculating on displaced geometry 591 (of 1008) >>
	<< Calculating on displaced geometry 592 (of 1008) >>
	<< Calculating on displaced geometry 593 (of 1008) >>
	<< Calculating on displaced geometry 595 (of 1008) >>
	<< Calculating on displaced geometry 594 (of 1008) >>
	<< Calculating on displaced geometry 596 (of 1008) >>
	<< Calculating on displaced geometry 597 (of 1008) >>
	<< Calculating on displaced geometry 598 (of 1008) >>
	<< Calculating on displaced geometry 600 (of 1008) >>
	<< Calculating on displaced geometry 599 (of 1008) >>
	<< Calculating on displaced geometry 601 (of 1008) >>
	<< Calculating on displaced geometry 602 (of 1008) >>
	<< Calculating on displaced geometry 603 (of 1008) >>
	<< Calculating on displaced geometry 604 (of 1008) >>
	<< Calculating on displaced geometry 605 (of 1008) >>
	<< Calculating on displaced geometry 606 (of 1008) >>
	<< Calculating on displaced geometry 607 (of 1008) >>
	<< Calculating on displaced geometry 608 (of 1008) >>
	<< Calculating on displaced geometry 609 (of 1008) >>
	<< Calculating on displaced geometry 610 (of 1008) >>
	<< Calculating on displaced geometry 611 (of 1008) >>
	<< Calculating on displaced geometry 612 (of 1008) >>
	<< Calculating on displaced geometry 613 (of 1008) >>
	<< Calculating on displaced geometry 615 (of 1008) >>
	<< Calculating on displaced geometry 614 (of 1008) >>
	<< Calculating on displaced geometry 616 (of 1008) >>
	<< Calculating on displaced geometry 618 (of 1008) >>
	<< Calculating on displaced geometry 617 (of 1008) >>
	<< Calculating on displaced geometry 619 (of 1008) >>
	<< Calculating on displaced geometry 620 (of 1008) >>
	<< Calculating on displaced geometry 621 (of 1008) >>
	<< Calculating on displaced geometry 622 (of 1008) >>
	<< Calculating on displaced geometry 623 (of 1008) >>
	<< Calculating on displaced geometry 624 (of 1008) >>
	<< Calculating on displaced geometry 625 (of 1008) >>
	<< Calculating on displaced geometry 626 (of 1008) >>
	<< Calculating on displaced geometry 627 (of 1008) >>
	<< Calculating on displaced geometry 629 (of 1008) >>
	<< Calculating on displaced geometry 628 (of 1008) >>
	<< Calculating on displaced geometry 630 (of 1008) >>
	<< Calculating on displaced geometry 631 (of 1008) >>
	<< Calculating on displaced geometry 632 (of 1008) >>
	<< Calculating on displaced geometry 633 (of 1008) >>
	<< Calculating on displaced geometry 634 (of 1008) >>
	<< Calculating on displaced geometry 635 (of 1008) >>
	<< Calculating on displaced geometry 636 (of 1008) >>
	<< Calculating on displaced geometry 637 (of 1008) >>
	<< Calculating on displaced geometry 638 (of 1008) >>
	<< Calculating on displaced geometry 639 (of 1008) >>
	<< Calculating on displaced geometry 640 (of 1008) >>
	<< Calculating on displaced geometry 641 (of 1008) >>
	<< Calculating on displaced geometry 642 (of 1008) >>
	<< Calculating on displaced geometry 643 (of 1008) >>
	<< Calculating on displaced geometry 644 (of 1008) >>
	<< Calculating on displaced geometry 645 (of 1008) >>
	<< Calculating on displaced geometry 646 (of 1008) >>
	<< Calculating on displaced geometry 647 (of 1008) >>
	<< Calculating on displaced geometry 648 (of 1008) >>
	<< Calculating on displaced geometry 649 (of 1008) >>
	<< Calculating on displaced geometry 651 (of 1008) >>
	<< Calculating on displaced geometry 650 (of 1008) >>
	<< Calculating on displaced geometry 652 (of 1008) >>
	<< Calculating on displaced geometry 653 (of 1008) >>
	<< Calculating on displaced geometry 654 (of 1008) >>
	<< Calculating on displaced geometry 655 (of 1008) >>
	<< Calculating on displaced geometry 656 (of 1008) >>
	<< Calculating on displaced geometry 657 (of 1008) >>
	<< Calculating on displaced geometry 660 (of 1008) >>
	<< Calculating on displaced geometry 659 (of 1008) >>
	<< Calculating on displaced geometry 658 (of 1008) >>
	<< Calculating on displaced geometry 661 (of 1008) >>
	<< Calculating on displaced geometry 662 (of 1008) >>
	<< Calculating on displaced geometry 663 (of 1008) >>
	<< Calculating on displaced geometry 664 (of 1008) >>
	<< Calculating on displaced geometry 665 (of 1008) >>
	<< Calculating on displaced geometry 667 (of 1008) >>
	<< Calculating on displaced geometry 666 (of 1008) >>
	<< Calculating on displaced geometry 668 (of 1008) >>
	<< Calculating on displaced geometry 669 (of 1008) >>
	<< Calculating on displaced geometry 670 (of 1008) >>
	<< Calculating on displaced geometry 671 (of 1008) >>
	<< Calculating on displaced geometry 672 (of 1008) >>
	<< Calculating on displaced geometry 673 (of 1008) >>
	<< Calculating on displaced geometry 674 (of 1008) >>
	<< Calculating on displaced geometry 675 (of 1008) >>
	<< Calculating on displaced geometry 676 (of 1008) >>
	<< Calculating on displaced geometry 677 (of 1008) >>
	<< Calculating on displaced geometry 678 (of 1008) >>
[...]
freq.     364.46  E(vib)   ...       0.22 
freq.     367.48  E(vib)   ...       0.21 
freq.     369.54  E(vib)   ...       0.21 
freq.     372.07  E(vib)   ...       0.21 
freq.     374.41  E(vib)   ...       0.21 
freq.     374.93  E(vib)   ...       0.21 
freq.     378.82  E(vib)   ...       0.21 
freq.     384.19  E(vib)   ...       0.20 
freq.     386.31  E(vib)   ...       0.20 
freq.     388.55  E(vib)   ...       0.20 
freq.     391.13  E(vib)   ...       0.20 
freq.     395.06  E(vib)   ...       0.20 
freq.     398.88  E(vib)   ...       0.19 
freq.     401.44  E(vib)   ...       0.19 
freq.     407.07  E(vib)   ...       0.19 
freq.     411.46  E(vib)   ...       0.19 
freq.     414.91  E(vib)   ...       0.19 
freq.     418.36  E(vib)   ...       0.18 
freq.     424.73  E(vib)   ...       0.18 
freq.     429.11  E(vib)   ...       0.18 
freq.     430.17  E(vib)   ...       0.18 
freq.     434.03  E(vib)   ...       0.17 
freq.     434.83  E(vib)   ...       0.17 
freq.     440.21  E(vib)   ...       0.17 
freq.     453.96  E(vib)   ...       0.16 
freq.     462.36  E(vib)   ...       0.16 
freq.     466.52  E(vib)   ...       0.16 
freq.     471.61  E(vib)   ...       0.15 
freq.     473.52  E(vib)   ...       0.15 
freq.     474.04  E(vib)   ...       0.15 
freq.     476.42  E(vib)   ...       0.15 
freq.     480.16  E(vib)   ...       0.15 
freq.     483.87  E(vib)   ...       0.15 
freq.     486.29  E(vib)   ...       0.15 
freq.     486.52  E(vib)   ...       0.15 
freq.     487.88  E(vib)   ...       0.15 
freq.     491.23  E(vib)   ...       0.14 
freq.     495.08  E(vib)   ...       0.14 
freq.     500.13  E(vib)   ...       0.14 
freq.     507.59  E(vib)   ...       0.14 
freq.     510.33  E(vib)   ...       0.14 
freq.     513.01  E(vib)   ...       0.13 
freq.     520.43  E(vib)   ...       0.13 
freq.     523.92  E(vib)   ...       0.13 
freq.     524.78  E(vib)   ...       0.13 
freq.     527.99  E(vib)   ...       0.13 
freq.     530.28  E(vib)   ...       0.13 
freq.     531.95  E(vib)   ...       0.13 
freq.     536.00  E(vib)   ...       0.12 
freq.     538.26  E(vib)   ...       0.12 
freq.     540.96  E(vib)   ...       0.12 
freq.     542.84  E(vib)   ...       0.12 
freq.     544.92  E(vib)   ...       0.12 
freq.     547.52  E(vib)   ...       0.12 
freq.     551.11  E(vib)   ...       0.12 
freq.     553.28  E(vib)   ...       0.12 
freq.     557.22  E(vib)   ...       0.12 
freq.     558.57  E(vib)   ...       0.12 
freq.     559.71  E(vib)   ...       0.12 
freq.     563.80  E(vib)   ...       0.11 
freq.     565.98  E(vib)   ...       0.11 
freq.     568.87  E(vib)   ...       0.11 
freq.     571.10  E(vib)   ...       0.11 
freq.     571.22  E(vib)   ...       0.11 
freq.     574.48  E(vib)   ...       0.11 
freq.     578.00  E(vib)   ...       0.11 
freq.     581.19  E(vib)   ...       0.11 
freq.     583.30  E(vib)   ...       0.11 
freq.     583.91  E(vib)   ...       0.11 
freq.     585.24  E(vib)   ...       0.11 
freq.     586.77  E(vib)   ...       0.11 
freq.     590.22  E(vib)   ...       0.10 
freq.     592.75  E(vib)   ...       0.10 
freq.     595.65  E(vib)   ...       0.10 
freq.     597.25  E(vib)   ...       0.10 
freq.     599.01  E(vib)   ...       0.10 
freq.     603.68  E(vib)   ...       0.10 
freq.     605.58  E(vib)   ...       0.10 
freq.     608.61  E(vib)   ...       0.10 
freq.     609.24  E(vib)   ...       0.10 
freq.     615.13  E(vib)   ...       0.10 
freq.     616.15  E(vib)   ...       0.09 
freq.     620.57  E(vib)   ...       0.09 
freq.     622.18  E(vib)   ...       0.09 
freq.     624.12  E(vib)   ...       0.09 
freq.     625.89  E(vib)   ...       0.09 
freq.     626.24  E(vib)   ...       0.09 
freq.     628.67  E(vib)   ...       0.09 
freq.     630.13  E(vib)   ...       0.09 
freq.     633.51  E(vib)   ...       0.09 
freq.     635.60  E(vib)   ...       0.09 
freq.     638.42  E(vib)   ...       0.09 
freq.     644.11  E(vib)   ...       0.09 
freq.     646.35  E(vib)   ...       0.09 
freq.     650.36  E(vib)   ...       0.08 
freq.     651.62  E(vib)   ...       0.08 
freq.     657.35  E(vib)   ...       0.08 
freq.     662.75  E(vib)   ...       0.08 
freq.     663.30  E(vib)   ...       0.08 
freq.     666.72  E(vib)   ...       0.08 
freq.     669.13  E(vib)   ...       0.08 
freq.     669.88  E(vib)   ...       0.08 
freq.     672.41  E(vib)   ...       0.08 
freq.     675.22  E(vib)   ...       0.08 
freq.     679.29  E(vib)   ...       0.08 
freq.     679.39  E(vib)   ...       0.08 
freq.     682.87  E(vib)   ...       0.08 
freq.     686.24  E(vib)   ...       0.07 
freq.     687.82  E(vib)   ...       0.07 
freq.     688.18  E(vib)   ...       0.07 
freq.     690.53  E(vib)   ...       0.07 
freq.     697.04  E(vib)   ...       0.07 
freq.     698.63  E(vib)   ...       0.07 
freq.     704.64  E(vib)   ...       0.07 
freq.     709.86  E(vib)   ...       0.07 
freq.     714.04  E(vib)   ...       0.07 
freq.     715.70  E(vib)   ...       0.07 
freq.     718.08  E(vib)   ...       0.07 
freq.     720.36  E(vib)   ...       0.07 
freq.     723.53  E(vib)   ...       0.06 
freq.     728.12  E(vib)   ...       0.06 
freq.     731.63  E(vib)   ...       0.06 
freq.     736.58  E(vib)   ...       0.06 
freq.     738.75  E(vib)   ...       0.06 
freq.     740.73  E(vib)   ...       0.06 
freq.     744.81  E(vib)   ...       0.06 
freq.     748.31  E(vib)   ...       0.06 
freq.     750.37  E(vib)   ...       0.06 
freq.     751.22  E(vib)   ...       0.06 
freq.     758.43  E(vib)   ...       0.06 
freq.     759.37  E(vib)   ...       0.06 
freq.     762.34  E(vib)   ...       0.06 
freq.     769.99  E(vib)   ...       0.05 
freq.     773.14  E(vib)   ...       0.05 
freq.     774.92  E(vib)   ...       0.05 
freq.     781.41  E(vib)   ...       0.05 
freq.     785.03  E(vib)   ...       0.05 
freq.     791.02  E(vib)   ...       0.05 
freq.     794.40  E(vib)   ...       0.05 
freq.     797.35  E(vib)   ...       0.05 
freq.     799.21  E(vib)   ...       0.05 
freq.     800.99  E(vib)   ...       0.05 
freq.     801.81  E(vib)   ...       0.05 
freq.     805.42  E(vib)   ...       0.05 
freq.     816.77  E(vib)   ...       0.05 
freq.     819.74  E(vib)   ...       0.05 
freq.     824.38  E(vib)   ...       0.04 
freq.     827.27  E(vib)   ...       0.04 
freq.     831.08  E(vib)   ...       0.04 
freq.     840.45  E(vib)   ...       0.04 
freq.     844.66  E(vib)   ...       0.04 
freq.     848.41  E(vib)   ...       0.04 
freq.     849.72  E(vib)   ...       0.04 
freq.     851.22  E(vib)   ...       0.04 
freq.     864.97  E(vib)   ...       0.04 
freq.     870.67  E(vib)   ...       0.04 
freq.     878.23  E(vib)   ...       0.04 
freq.     885.16  E(vib)   ...       0.04 
freq.     902.78  E(vib)   ...       0.03 
freq.     905.85  E(vib)   ...       0.03 
freq.     914.15  E(vib)   ...       0.03 
freq.     915.06  E(vib)   ...       0.03 
freq.     923.35  E(vib)   ...       0.03 
freq.     925.87  E(vib)   ...       0.03 
freq.     936.55  E(vib)   ...       0.03 
freq.     937.01  E(vib)   ...       0.03 
freq.     945.40  E(vib)   ...       0.03 
freq.     948.85  E(vib)   ...       0.03 
freq.     959.82  E(vib)   ...       0.03 
freq.     964.25  E(vib)   ...       0.03 
freq.     970.11  E(vib)   ...       0.03 
freq.     982.12  E(vib)   ...       0.02 
freq.     991.60  E(vib)   ...       0.02 
freq.     999.19  E(vib)   ...       0.02 
freq.    1038.20  E(vib)   ...       0.02 
freq.    1432.45  E(vib)   ...       0.00 
freq.    1457.85  E(vib)   ...       0.00 
freq.    1463.11  E(vib)   ...       0.00 
freq.    1468.81  E(vib)   ...       0.00 
freq.    1472.88  E(vib)   ...       0.00 
freq.    1474.07  E(vib)   ...       0.00 
freq.    1479.09  E(vib)   ...       0.00 
freq.    1482.43  E(vib)   ...       0.00 
freq.    1485.25  E(vib)   ...       0.00 
freq.    1491.17  E(vib)   ...       0.00 
freq.    1492.81  E(vib)   ...       0.00 
freq.    1493.75  E(vib)   ...       0.00 
freq.    1495.46  E(vib)   ...       0.00 
freq.    1497.20  E(vib)   ...       0.00 
freq.    1499.43  E(vib)   ...       0.00 
freq.    1501.84  E(vib)   ...       0.00 
freq.    1502.78  E(vib)   ...       0.00 
freq.    1504.41  E(vib)   ...       0.00 
freq.    1507.44  E(vib)   ...       0.00 
freq.    1509.26  E(vib)   ...       0.00 
freq.    1510.94  E(vib)   ...       0.00 
freq.    1512.19  E(vib)   ...       0.00 
freq.    1515.01  E(vib)   ...       0.00 
freq.    1515.52  E(vib)   ...       0.00 
freq.    1515.92  E(vib)   ...       0.00 
freq.    1517.75  E(vib)   ...       0.00 
freq.    1520.59  E(vib)   ...       0.00 
freq.    1522.07  E(vib)   ...       0.00 
freq.    1522.97  E(vib)   ...       0.00 
freq.    1524.74  E(vib)   ...       0.00 
freq.    1526.88  E(vib)   ...       0.00 
freq.    1527.56  E(vib)   ...       0.00 
freq.    1529.15  E(vib)   ...       0.00 
freq.    1530.20  E(vib)   ...       0.00 
freq.    1531.14  E(vib)   ...       0.00 
freq.    1531.43  E(vib)   ...       0.00 
freq.    1533.63  E(vib)   ...       0.00 
freq.    1534.09  E(vib)   ...       0.00 
freq.    1534.27  E(vib)   ...       0.00 
freq.    1537.22  E(vib)   ...       0.00 
freq.    1537.77  E(vib)   ...       0.00 
freq.    1538.68  E(vib)   ...       0.00 
freq.    1540.36  E(vib)   ...       0.00 
freq.    1542.14  E(vib)   ...       0.00 
freq.    1543.51  E(vib)   ...       0.00 
freq.    1545.66  E(vib)   ...       0.00 
freq.    1548.43  E(vib)   ...       0.00 
freq.    1549.30  E(vib)   ...       0.00 
freq.    1551.26  E(vib)   ...       0.00 
freq.    1555.27  E(vib)   ...       0.00 
freq.    1558.07  E(vib)   ...       0.00 
freq.    1559.51  E(vib)   ...       0.00 
freq.    1563.29  E(vib)   ...       0.00 
freq.    1564.47  E(vib)   ...       0.00 
freq.    1572.07  E(vib)   ...       0.00 
freq.    1578.96  E(vib)   ...       0.00 
freq.    2909.70  E(vib)   ...       0.00 
freq.    2923.14  E(vib)   ...       0.00 
freq.    2960.42  E(vib)   ...       0.00 
freq.    2990.84  E(vib)   ...       0.00 
freq.    2997.62  E(vib)   ...       0.00 
freq.    2999.25  E(vib)   ...       0.00 
freq.    3017.50  E(vib)   ...       0.00 
freq.    3033.78  E(vib)   ...       0.00 
freq.    3036.85  E(vib)   ...       0.00 
freq.    3040.29  E(vib)   ...       0.00 
freq.    3041.11  E(vib)   ...       0.00 
freq.    3067.44  E(vib)   ...       0.00 
freq.    3079.50  E(vib)   ...       0.00 
freq.    3092.10  E(vib)   ...       0.00 
freq.    3096.34  E(vib)   ...       0.00 
freq.    3109.19  E(vib)   ...       0.00 
freq.    3128.99  E(vib)   ...       0.00 
freq.    3130.84  E(vib)   ...       0.00 
freq.    3134.63  E(vib)   ...       0.00 
freq.    3137.31  E(vib)   ...       0.00 
freq.    3141.66  E(vib)   ...       0.00 
freq.    3143.24  E(vib)   ...       0.00 
freq.    3157.88  E(vib)   ...       0.00 
freq.    3161.42  E(vib)   ...       0.00 
freq.    3162.59  E(vib)   ...       0.00 
freq.    3164.46  E(vib)   ...       0.00 
freq.    3169.56  E(vib)   ...       0.00 
freq.    3174.89  E(vib)   ...       0.00 
freq.    3176.54  E(vib)   ...       0.00 
freq.    3182.64  E(vib)   ...       0.00 
freq.    3187.15  E(vib)   ...       0.00 
freq.    3191.09  E(vib)   ...       0.00 
freq.    3200.68  E(vib)   ...       0.00 
freq.    3208.40  E(vib)   ...       0.00 
freq.    3209.10  E(vib)   ...       0.00 
freq.    3218.31  E(vib)   ...       0.00 
freq.    3221.82  E(vib)   ...       0.00 
freq.    3225.86  E(vib)   ...       0.00 
freq.    3233.81  E(vib)   ...       0.00 
freq.    3248.96  E(vib)   ...       0.00 
freq.    3250.62  E(vib)   ...       0.00 
freq.    3259.96  E(vib)   ...       0.00 
freq.    3263.20  E(vib)   ...       0.00 
freq.    3264.99  E(vib)   ...       0.00 
freq.    3272.62  E(vib)   ...       0.00 
freq.    3273.80  E(vib)   ...       0.00 
freq.    3275.75  E(vib)   ...       0.00 
freq.    3276.94  E(vib)   ...       0.00 
freq.    3280.64  E(vib)   ...       0.00 
freq.    3283.46  E(vib)   ...       0.00 
freq.    3289.24  E(vib)   ...       0.00 
freq.    3295.48  E(vib)   ...       0.00 
freq.    3300.09  E(vib)   ...       0.00 
freq.    3312.37  E(vib)   ...       0.00 
freq.    3312.88  E(vib)   ...       0.00 
freq.    3320.46  E(vib)   ...       0.00 
freq.    3330.11  E(vib)   ...       0.00 
freq.    3332.12  E(vib)   ...       0.00 
freq.    3334.48  E(vib)   ...       0.00 
freq.    3338.91  E(vib)   ...       0.00 
freq.    3346.35  E(vib)   ...       0.00 
freq.    3352.37  E(vib)   ...       0.00 
freq.    3354.59  E(vib)   ...       0.00 
freq.    3361.85  E(vib)   ...       0.00 
freq.    3363.97  E(vib)   ...       0.00 
freq.    3364.83  E(vib)   ...       0.00 
freq.    3366.67  E(vib)   ...       0.00 
freq.    3374.53  E(vib)   ...       0.00 
freq.    3375.91  E(vib)   ...       0.00 
freq.    3376.97  E(vib)   ...       0.00 
freq.    3377.73  E(vib)   ...       0.00 
freq.    3380.72  E(vib)   ...       0.00 
freq.    3385.28  E(vib)   ...       0.00 
freq.    3390.81  E(vib)   ...       0.00 
freq.    3393.86  E(vib)   ...       0.00 
freq.    3397.97  E(vib)   ...       0.00 
freq.    3409.58  E(vib)   ...       0.00 
freq.    3409.95  E(vib)   ...       0.00 
freq.    3414.51  E(vib)   ...       0.00 
freq.    3416.32  E(vib)   ...       0.00 
freq.    3419.32  E(vib)   ...       0.00 
freq.    3420.43  E(vib)   ...       0.00 
freq.    3422.96  E(vib)   ...       0.00 
freq.    3425.06  E(vib)   ...       0.00 
freq.    3426.22  E(vib)   ...       0.00 
freq.    3433.70  E(vib)   ...       0.00 
freq.    3436.44  E(vib)   ...       0.00 
freq.    3440.08  E(vib)   ...       0.00 
freq.    3454.08  E(vib)   ...       0.00 
freq.    3464.03  E(vib)   ...       0.00 
freq.    3465.83  E(vib)   ...       0.00 
freq.    3473.09  E(vib)   ...       0.00 
freq.    3488.72  E(vib)   ...       0.00 
freq.    3492.04  E(vib)   ...       0.00 
freq.    3492.48  E(vib)   ...       0.00 
freq.    3501.46  E(vib)   ...       0.00 
freq.    3504.98  E(vib)   ...       0.00 
freq.    3513.55  E(vib)   ...       0.00 
freq.    3514.40  E(vib)   ...       0.00 
freq.    3525.43  E(vib)   ...       0.00 
freq.    3527.36  E(vib)   ...       0.00 
freq.    3563.14  E(vib)   ...       0.00 
freq.    3569.13  E(vib)   ...       0.00 
freq.    3572.47  E(vib)   ...       0.00 
freq.    3587.70  E(vib)   ...       0.00 
freq.    3649.74  E(vib)   ...       0.00 
freq.    3660.17  E(vib)   ...       0.00 
freq.    3661.74  E(vib)   ...       0.00 
freq.    3662.64  E(vib)   ...       0.00 
freq.    3674.67  E(vib)   ...       0.00 
freq.    3675.51  E(vib)   ...       0.00 
freq.    3684.74  E(vib)   ...       0.00 

------------
INNER ENERGY
------------

The inner energy is: U= E(el) + E(ZPE) + E(vib) + E(rot) + E(trans)
    E(el)   - is the total energy from the electronic structure calculation
              = E(kin-el) + E(nuc-el) + E(el-el) + E(nuc-nuc)
    E(ZPE)  - the the zero temperature vibrational energy from the frequency calculation
    E(vib)  - the the finite temperature correction to E(ZPE) due to population
              of excited vibrational states
    E(rot)  - is the rotational thermal energy
    E(trans)- is the translational thermal energy

Summary of contributions to the inner energy U:
Electronic energy                ...  -1018.34668848 Eh
Zero point energy                ...      1.36209329 Eh     854.72 kcal/mol
Thermal vibrational correction   ...      0.12021920 Eh      75.44 kcal/mol
Thermal rotational correction    ...      0.00141627 Eh       0.89 kcal/mol
Thermal translational correction ...      0.00141627 Eh       0.89 kcal/mol
-----------------------------------------------------------------------
Total thermal energy                  -1016.86154345 Eh


Summary of corrections to the electronic energy:
(perhaps to be used in another calculation)
Total thermal correction                  0.12305174 Eh      77.22 kcal/mol
Non-thermal (ZPE) correction              1.36209329 Eh     854.72 kcal/mol
-----------------------------------------------------------------------
Total correction                          1.48514503 Eh     931.94 kcal/mol


--------
ENTHALPY
--------

The enthalpy is H = U + kB*T
                kB is Boltzmann's constant
Total free energy                 ...  -1016.86154345 Eh 
Thermal Enthalpy correction       ...      0.00094421 Eh       0.59 kcal/mol
-----------------------------------------------------------------------
Total Enthalpy                    ...  -1016.86059924 Eh


Note: Only C1 symmetry has been detected, increase convergence thresholds 
      if your molecule has a higher symmetry. Symmetry factor of 1.0 is   
      used for the rotational entropy correction. 
 

Note: Rotational entropy computed according to Herzberg 
Infrared and Raman Spectra, Chapter V,1, Van Nostrand Reinhold, 1945 
Point Group:  C1, Symmetry Number:   1  
Rotational constants in cm-1:     0.001203     0.000710     0.000609 

Vibrational entropy computed according to the QRRHO of S. Grimme
Chem.Eur.J. 2012 18 9955


-------
ENTROPY
-------

The entropy contributions are T*S = T*(S(el)+S(vib)+S(rot)+S(trans))
     S(el)   - electronic entropy
     S(vib)  - vibrational entropy
     S(rot)  - rotational entropy
     S(trans)- translational entropy
The entropies will be listed as multiplied by the temperature to get
units of energy

Electronic entropy                ...      0.00000000 Eh      0.00 kcal/mol
Vibrational entropy               ...      0.21256446 Eh    133.39 kcal/mol
Rotational entropy                ...      0.01960238 Eh     12.30 kcal/mol
Translational entropy             ...      0.02214479 Eh     13.90 kcal/mol
-----------------------------------------------------------------------
Final entropy term                ...      0.25431163 Eh    159.58 kcal/mol

In case the symmetry of your molecule has not been determined correctly
or in case you have a reason to use a different symmetry number we print 
out the resulting rotational entropy values for sn=1,12 :
 --------------------------------------------------------
|  sn= 1 | S(rot)=       0.01960238 Eh     12.30 kcal/mol|
|  sn= 2 | S(rot)=       0.01894793 Eh     11.89 kcal/mol|
|  sn= 3 | S(rot)=       0.01856510 Eh     11.65 kcal/mol|
|  sn= 4 | S(rot)=       0.01829347 Eh     11.48 kcal/mol|
|  sn= 5 | S(rot)=       0.01808278 Eh     11.35 kcal/mol|
|  sn= 6 | S(rot)=       0.01791064 Eh     11.24 kcal/mol|
|  sn= 7 | S(rot)=       0.01776509 Eh     11.15 kcal/mol|
|  sn= 8 | S(rot)=       0.01763901 Eh     11.07 kcal/mol|
|  sn= 9 | S(rot)=       0.01752781 Eh     11.00 kcal/mol|
|  sn=10 | S(rot)=       0.01742833 Eh     10.94 kcal/mol|
|  sn=11 | S(rot)=       0.01733834 Eh     10.88 kcal/mol|
|  sn=12 | S(rot)=       0.01725618 Eh     10.83 kcal/mol|
 --------------------------------------------------------


-------------------
GIBBS FREE ENERGY
-------------------

The Gibbs free energy is G = H - T*S

Total enthalpy                    ...  -1016.86059924 Eh 
Total entropy correction          ...     -0.25431163 Eh   -159.58 kcal/mol
-----------------------------------------------------------------------
Final Gibbs free energy         ...  -1017.11491088 Eh

For completeness - the Gibbs free energy minus the electronic energy
G-E(el)                           ...      1.23177761 Eh    772.95 kcal/mol



Timings for individual modules:

Sum of individual times         ...     1119.899 sec (=  18.665 min)
Numerical frequency calculation ...     1099.030 sec (=  18.317 min)  98.1 %
XTB module                      ...       11.022 sec (=   0.184 min)   1.0 %
ONIOM_Small energy and gradient ...        0.897 sec (=   0.015 min)   0.1 %
ONIOM_Large energy and gradient ...        8.950 sec (=   0.149 min)   0.8 %
                             ****ORCA TERMINATED NORMALLY****
TOTAL RUN TIME: 0 days 0 hours 18 minutes 37 seconds 214 msec
