
                                 *****************
                                 * O   R   C   A *
                                 *****************

                                            #,                                       
                                            ###                                      
                                            ####                                     
                                            #####                                    
                                            ######                                   
                                           ########,                                 
                                     ,,################,,,,,                         
                               ,,#################################,,                 
                          ,,##########################################,,             
                       ,#########################################, ''#####,          
                    ,#############################################,,   '####,        
                  ,##################################################,,,,####,       
                ,###########''''           ''''###############################       
              ,#####''   ,,,,##########,,,,          '''####'''          '####       
            ,##' ,,,,###########################,,,                        '##       
           ' ,,###''''                  '''############,,,                           
         ,,##''                                '''############,,,,        ,,,,,,###''
      ,#''                                            '''#######################'''  
     '                                                          ''''####''''         
             ,#######,   #######,   ,#######,      ##                                
            ,#'     '#,  ##    ##  ,#'     '#,    #''#        ######   ,####,        
            ##       ##  ##   ,#'  ##            #'  '#       #        #'  '#        
            ##       ##  #######   ##           ,######,      #####,   #    #        
            '#,     ,#'  ##    ##  '#,     ,#' ,#      #,         ##   #,  ,#        
             '#######'   ##     ##  '#######'  #'      '#     #####' # '####'        



                  #######################################################
                  #                        -***-                        #
                  #          Department of theory and spectroscopy      #
                  #    Directorship and core code : Frank Neese         #
                  #        Max Planck Institute fuer Kohlenforschung    #
                  #                Kaiser Wilhelm Platz 1               #
                  #                 D-45470 Muelheim/Ruhr               #
                  #                      Germany                        #
                  #                                                     #
                  #                  All rights reserved                #
                  #                        -***-                        #
                  #######################################################


                         Program Version 5.0.1 -  RELEASE  -


 With contributions from (in alphabetic order):
   Daniel Aravena         : Magnetic Suceptibility
   Michael Atanasov       : Ab Initio Ligand Field Theory (pilot matlab implementation)
   Alexander A. Auer      : GIAO ZORA, VPT2 properties, NMR spectrum
   Ute Becker             : Parallelization
   Giovanni Bistoni       : ED, misc. LED, open-shell LED, HFLD
   Martin Brehm           : Molecular dynamics
   Dmytro Bykov           : SCF Hessian
   Vijay G. Chilkuri      : MRCI spin determinant printing, contributions to CSF-ICE
   Dipayan Datta          : RHF DLPNO-CCSD density
   Achintya Kumar Dutta   : EOM-CC, STEOM-CC
   Dmitry Ganyushin       : Spin-Orbit,Spin-Spin,Magnetic field MRCI
   Miquel Garcia          : C-PCM and meta-GGA Hessian, CC/C-PCM, Gaussian charge scheme
   Yang Guo               : DLPNO-NEVPT2, F12-NEVPT2, CIM, IAO-localization
   Andreas Hansen         : Spin unrestricted coupled pair/coupled cluster methods
   Benjamin Helmich-Paris : MC-RPA, TRAH-SCF, COSX integrals
   Lee Huntington         : MR-EOM, pCC
   Robert Izsak           : Overlap fitted RIJCOSX, COSX-SCS-MP3, EOM
   Marcus Kettner         : VPT2
   Christian Kollmar      : KDIIS, OOCD, Brueckner-CCSD(T), CCSD density, CASPT2, CASPT2-K
   Simone Kossmann        : Meta GGA functionals, TD-DFT gradient, OOMP2, MP2 Hessian
   Martin Krupicka        : Initial AUTO-CI
   Lucas Lang             : DCDCAS
   Marvin Lechner         : AUTO-CI (C++ implementation), FIC-MRCC
   Dagmar Lenk            : GEPOL surface, SMD
   Dimitrios Liakos       : Extrapolation schemes; Compound Job, initial MDCI parallelization
   Dimitrios Manganas     : Further ROCIS development; embedding schemes
   Dimitrios Pantazis     : SARC Basis sets
   Anastasios Papadopoulos: AUTO-CI, single reference methods and gradients
   Taras Petrenko         : DFT Hessian,TD-DFT gradient, ASA, ECA, R-Raman, ABS, FL, XAS/XES, NRVS
   Peter Pinski           : DLPNO-MP2, DLPNO-MP2 Gradient
   Christoph Reimann      : Effective Core Potentials
   Marius Retegan         : Local ZFS, SOC
   Christoph Riplinger    : Optimizer, TS searches, QM/MM, DLPNO-CCSD(T), (RO)-DLPNO pert. Triples
   Tobias Risthaus        : Range-separated hybrids, TD-DFT gradient, RPA, STAB
   Michael Roemelt        : Original ROCIS implementation
   Masaaki Saitow         : Open-shell DLPNO-CCSD energy and density
   Barbara Sandhoefer     : DKH picture change effects
   Avijit Sen             : IP-ROCIS
   Kantharuban Sivalingam : CASSCF convergence, NEVPT2, FIC-MRCI
   Bernardo de Souza      : ESD, SOC TD-DFT
   Georgi Stoychev        : AutoAux, RI-MP2 NMR, DLPNO-MP2 response
   Willem Van den Heuvel  : Paramagnetic NMR
   Boris Wezisla          : Elementary symmetry handling
   Frank Wennmohs         : Technical directorship


 We gratefully acknowledge several colleagues who have allowed us to
 interface, adapt or use parts of their codes:
   Stefan Grimme, W. Hujo, H. Kruse, P. Pracht,  : VdW corrections, initial TS optimization,
                  C. Bannwarth, S. Ehlert          DFT functionals, gCP, sTDA/sTD-DF
   Ed Valeev, F. Pavosevic, A. Kumar             : LibInt (2-el integral package), F12 methods
   Garnet Chan, S. Sharma, J. Yang, R. Olivares  : DMRG
   Ulf Ekstrom                                   : XCFun DFT Library
   Mihaly Kallay                                 : mrcc  (arbitrary order and MRCC methods)
   Jiri Pittner, Ondrej Demel                    : Mk-CCSD
   Frank Weinhold                                : gennbo (NPA and NBO analysis)
   Christopher J. Cramer and Donald G. Truhlar   : smd solvation model
   Lars Goerigk                                  : TD-DFT with DH, B97 family of functionals
   V. Asgeirsson, H. Jonsson                     : NEB implementation
   FAccTs GmbH                                   : IRC, NEB, NEB-TS, DLPNO-Multilevel, CI-OPT
                                                   MM, QMMM, 2- and 3-layer-ONIOM, Crystal-QMMM,
                                                   LR-CPCM, SF, NACMEs, symmetry and pop. for TD-DFT,
                                                   nearIR, NL-DFT gradient (VV10), updates on ESD,
                                                   ML-optimized integration grids
   S Lehtola, MJT Oliveira, MAL Marques          : LibXC Library
   Liviu Ungur et al                             : ANISO software


 Your calculation uses the libint2 library for the computation of 2-el integrals
 For citations please refer to: http://libint.valeyev.net

 Your ORCA version has been built with support for libXC version: 5.1.0
 For citations please refer to: https://tddft.org/programs/libxc/

 This ORCA versions uses:
   CBLAS   interface :  Fast vector & matrix operations
   LAPACKE interface :  Fast linear algebra routines
   SCALAPACK package :  Parallel linear algebra routines
   Shared memory     :  Shared parallel matrices
   BLAS/LAPACK       :  OpenBLAS 0.3.15  USE64BITINT DYNAMIC_ARCH NO_AFFINITY Haswell SINGLE_THREADED
        Core in use  :  Haswell
   Copyright (c) 2011-2014, The OpenBLAS Project




***************************************
The coordinates will be read from file: h2o.xyz
***************************************


================================================================================

----- Orbital basis set information -----
Your calculation utilizes the basis: aug-cc-pVTZ 
    H, B-Ne : Obtained from the ccRepo (grant-hill.group.shef.ac.uk/ccrepo) Feb. 2017
              R. A. Kendall, T. H. Dunning, Jr., R. J. Harrison, J. Chem. Phys. 96, 6796 (1992)
         He : Obtained from the ccRepo (grant-hill.group.shef.ac.uk/ccrepo) Feb. 2017
              D. E. Woon, T. H. Dunning, Jr., J. Chem. Phys. 100, 2975 (1994)
  Li-Be, Na : Obtained from the ccRepo (grant-hill.group.shef.ac.uk/ccrepo) Feb. 2017
              B. P. Prascher, D. E. Woon, K. A. Peterson, T. H. Dunning, Jr., A. K. Wilson, Theor. Chem. Acc. 128, 69 (2011)
         Mg : Obtained from the Peterson Research Group Website (tyr0.chem.wsu.edu/~kipeters) Feb. 2017
              B. P. Prascher, D. E. Woon, K. A. Peterson, T. H. Dunning, Jr., A. K. Wilson, Theor. Chem. Acc. 128, 69 (2011)
      Al-Ar : Obtained from the ccRepo (grant-hill.group.shef.ac.uk/ccrepo) Feb. 2017
              D. E. Woon, T. H. Dunning, Jr., J. Chem. Phys. 98, 1358 (1993)
      Sc-Zn : Obtained from the ccRepo (grant-hill.group.shef.ac.uk/ccrepo) Feb. 2017
              N. B. Balabanov, K. A. Peterson, J. Chem. Phys. 123, 064107 (2005)
              N. B. Balabanov, K. A. Peterson, J. Chem. Phys. 125, 074110 (2006)
      Ga-Kr : Obtained from the ccRepo (grant-hill.group.shef.ac.uk/ccrepo) Feb. 2017
              A. K. Wilson, D. E. Woon, K. A. Peterson, T. H. Dunning, Jr., J. Chem. Phys. 110, 7667 (1999)
     Ag, Au : Obtained from the Peterson Research Group Website (tyr0.chem.wsu.edu/~kipeters) Feb. 2017
              K. A. Peterson, C. Puzzarini, Theor. Chem. Acc. 114, 283 (2005)

----- AuxC basis set information -----
Your calculation utilizes the auxiliary basis: aug-cc-pVTZ/C 
  H-He, B-F, Al-Ar, Ga-Kr : Obtained from the EMSL Basis Set Exchange (bse.pnl.gov) Feb. 2017
                            F. Weigend, A. Kohn, C. Hattig, J. Chem. Phys. 116, 3175 (2002)
                   Be, Mg : Obtained from the TURBOMOLE 7.0 basis set library
                            C. Haettig, Phys. Chem. Chem. Phys. 7, 59 (2005)
                       Ne : Obtained from the EMSL Basis Set Exchange (bse.pnl.gov) Feb. 2017
                            C. Haettig, Phys. Chem. Chem. Phys. 7, 59 (2005)
                            F. Weigend, A. Kohn, C. Hattig, J. Chem. Phys. 116, 3175 (2002)
                    Sc-Zn : Obtained from the EMSL Basis Set Exchange (bse.pnl.gov) Feb. 2017
                            J. G. Hill, J. A. Platts, J. Chem. Phys. 128, 044104 (2008)

================================================================================
                                        WARNINGS
                       Please study these warnings very carefully!
================================================================================

WARNING: Old DensityContainer found on disk!
         Will remove this file - 
         If you want to keep old densities, please start your calculation with a different basename. 


WARNING: Post HF methods need fully converged wavefunctions
  ===> : Setting SCFConvForced true
         You can overwrite this default with %scf ConvForced false 


WARNING: MDCI localization with Augmented Hessian Foster-Boys
  ===> : Switching off randomization!

INFO   : the flag for use of the SHARK integral package has been found!

================================================================================
                                       INPUT FILE
================================================================================
NAME = h2o.inp
|  1> ! DLPNO-CCSD(T) aug-cc-pVTZ aug-cc-pVTZ/C TightPNO
|  2> %pal
|  3> nprocs 1
|  4> end
|  5> *xyzfile 0 1 h2o.xyz
|  6> 
|  7> 
|  8>                          ****END OF INPUT****
================================================================================

                       ****************************
                       * Single Point Calculation *
                       ****************************

---------------------------------
CARTESIAN COORDINATES (ANGSTROEM)
---------------------------------
  H     -0.479911   -0.297004   -3.201924
  O      0.378889   -0.699256   -3.034964
  H      1.005995   -0.047602   -3.365574

----------------------------
CARTESIAN COORDINATES (A.U.)
----------------------------
  NO LB      ZA    FRAG     MASS         X           Y           Z
   0 H     1.0000    0     1.008   -0.906900   -0.561256   -6.050760
   1 O     8.0000    0    15.999    0.715997   -1.321402   -5.735251
   2 H     1.0000    0     1.008    1.901055   -0.089954   -6.360012

--------------------------------
INTERNAL COORDINATES (ANGSTROEM)
--------------------------------
 H      0   0   0     0.000000000000     0.00000000     0.00000000
 O      1   0   0     0.962922690098     0.00000000     0.00000000
 H      2   1   0     0.962921440994   103.80366514     0.00000000

---------------------------
INTERNAL COORDINATES (A.U.)
---------------------------
 H      0   0   0     0.000000000000     0.00000000     0.00000000
 O      1   0   0     1.819660172424     0.00000000     0.00000000
 H      2   1   0     1.819657811960   103.80366514     0.00000000

---------------------
BASIS SET INFORMATION
---------------------
There are 2 groups of distinct atoms

 Group   1 Type H   : 6s3p2d contracted to 4s3p2d pattern {3111/111/11}
 Group   2 Type O   : 19s6p3d2f contracted to 5s4p3d2f pattern {88111/3111/111/11}

Atom   0H    basis set group =>   1
Atom   1O    basis set group =>   2
Atom   2H    basis set group =>   1
---------------------------------
AUXILIARY/C BASIS SET INFORMATION
---------------------------------
There are 2 groups of distinct atoms

 Group   1 Type H   : 5s4p3d2f contracted to 5s4p3d2f pattern {11111/1111/111/11}
 Group   2 Type O   : 9s7p6d4f2g contracted to 9s7p6d4f2g pattern {111111111/1111111/111111/1111/11}

Atom   0H    basis set group =>   1
Atom   1O    basis set group =>   2
Atom   2H    basis set group =>   1

Checking for AutoStart:
The File: h2o.gbw exists
Trying to determine its content:
     ... Fine, the file contains calculation information
     ... Fine, the calculation information was read
     ... Fine, the file contains a basis set
     ... Fine, the basis set was read
     ... Fine, the file contains a geometry
     ... Fine, the geometry was read
     ... Fine, the file contains a set of orbitals
     ... Fine, the orbitals can be read
     => possible old guess file was deleted
     => GBW file was renamed to GES file
     => GES file is set as startup file
     => Guess is set to MORead
     ... now leaving AutoStart

------------------------------------------------------------------------------
                           ORCA GTO INTEGRAL CALCULATION
------------------------------------------------------------------------------
------------------------------------------------------------------------------
                   ___                                                        
                  /   \      - P O W E R E D   B Y -                         
                 /     \                                                     
                 |  |  |   _    _      __       _____    __    __             
                 |  |  |  | |  | |    /  \     |  _  \  |  |  /  |          
                  \  \/   | |  | |   /    \    | | | |  |  | /  /          
                 / \  \   | |__| |  /  /\  \   | |_| |  |  |/  /          
                |  |  |   |  __  | /  /__\  \  |    /   |      \           
                |  |  |   | |  | | |   __   |  |    \   |  |\   \          
                \     /   | |  | | |  |  |  |  | |\  \  |  | \   \       
                 \___/    |_|  |_| |__|  |__|  |_| \__\ |__|  \__/        
                                                                              
                      - O R C A' S   B I G   F R I E N D -                    
                                      &                                       
                       - I N T E G R A L  F E E D E R -                       
                                                                              
 v1 FN, 2020, v2 2021                                                         
------------------------------------------------------------------------------


Reading SHARK input file h2o.SHARKINP.tmp ... ok
----------------------
SHARK INTEGRAL PACKAGE
----------------------

Number of atoms                             ...      3
Number of basis functions                   ...     92
Number of shells                            ...     32
Maximum angular momentum                    ...      3
Integral batch strategy                     ... SHARK/LIBINT Hybrid
RI-J (if used) integral strategy            ... SPLIT-RIJ (Revised 2003 algorithm where possible)
Printlevel                                  ...      1
Contraction scheme used                     ... SEGMENTED contraction
Coulomb Range Separation                    ... NOT USED
Exchange Range Separation                   ... NOT USED
Finite Nucleus Model                        ... NOT USED
Auxiliary Coulomb fitting basis             ... NOT available
Auxiliary J/K fitting basis                 ... NOT available
Auxiliary Correlation fitting basis         ... AVAILABLE
   # of basis functions in Aux-C            ...    198
   # of shells in Aux-C                     ...     56
   Maximum angular momentum in Aux-C        ...      4
Auxiliary 'external' fitting basis          ... NOT available
Integral threshold                          ...     1.000000e-10
Primitive cut-off                           ...     1.000000e-11
Primitive pair pre-selection threshold      ...     1.000000e-11

Calculating pre-screening integrals         ... done (  0.7 sec) Dimension = 32
Organizing shell pair data                  ... done (  0.0 sec)
Shell pair information
Total number of shell pairs                 ...       528
Shell pairs after pre-screening             ...       528
Total number of primitive shell pairs       ...      1443
Primitive shell pairs kept                  ...      1414
          la=0 lb=0:     91 shell pairs
          la=1 lb=0:    130 shell pairs
          la=1 lb=1:     55 shell pairs
          la=2 lb=0:     91 shell pairs
          la=2 lb=1:     70 shell pairs
          la=2 lb=2:     28 shell pairs
          la=3 lb=0:     26 shell pairs
          la=3 lb=1:     20 shell pairs
          la=3 lb=2:     14 shell pairs
          la=3 lb=3:      3 shell pairs

Calculating one electron integrals          ... done (  0.2 sec)
Calculating RI/C V-Matrix + Cholesky decomp.... done (  0.3 sec)
Calculating Nuclear repulsion               ... done (  0.0 sec) ENN=      9.142020901806 Eh

SHARK setup successfully completed in   1.3 seconds

Maximum memory used throughout the entire GTOINT-calculation: 17.2 MB
-------------------------------------------------------------------------------
                                 ORCA SCF
-------------------------------------------------------------------------------

------------
SCF SETTINGS
------------
Hamiltonian:
 Ab initio Hamiltonian  Method          .... Hartree-Fock(GTOs)


General Settings:
 Integral files         IntName         .... h2o
 Hartree-Fock type      HFTyp           .... RHF
 Total Charge           Charge          ....    0
 Multiplicity           Mult            ....    1
 Number of Electrons    NEL             ....   10
 Basis Dimension        Dim             ....   92
 Nuclear Repulsion      ENuc            ....      9.1420209018 Eh

Convergence Acceleration:
 DIIS                   CNVDIIS         .... on
   Start iteration      DIISMaxIt       ....    12
   Startup error        DIISStart       ....  0.200000
   # of expansion vecs  DIISMaxEq       ....     5
   Bias factor          DIISBfac        ....   1.050
   Max. coefficient     DIISMaxC        ....  10.000
 Trust-Rad. Augm. Hess. CNVTRAH         .... auto
   Auto Start mean grad. ratio tolernc. ....  1.125000
   Auto Start start iteration           ....     1
   Auto Start num. interpolation iter.  ....    10
   Max. Number of Micro iterations      ....    16
   Max. Number of Macro iterations      .... Maxiter - #DIIS iter
   Number of Davidson start vectors     ....     2
   Converg. threshold I  (grad. norm)   ....   5.000e-05
   Converg. threshold II (energy diff.) ....   1.000e-06
   Grad. Scal. Fac. for Micro threshold ....   0.100
   Minimum threshold for Micro iter.    ....   0.010
   NR start threshold (gradient norm)   ....   0.001
   Initial trust radius                 ....   0.400
   Minimum AH scaling param. (alpha)    ....   1.000
   Maximum AH scaling param. (alpha)    .... 1000.000
   Orbital update algorithm             .... Taylor
   White noise on init. David. guess    .... on
   Maximum white noise                  ....   0.010
   Quad. conv. algorithm                .... NR
 SOSCF                  CNVSOSCF        .... on
   Start iteration      SOSCFMaxIt      ....   150
   Startup grad/error   SOSCFStart      ....  0.003300
 Level Shifting         CNVShift        .... on
   Level shift para.    LevelShift      ....    0.2500
   Turn off err/grad.   ShiftErr        ....    0.0010
 Zerner damping         CNVZerner       .... off
 Static damping         CNVDamp         .... on
   Fraction old density DampFac         ....    0.7000
   Max. Damping (<1)    DampMax         ....    0.9800
   Min. Damping (>=0)   DampMin         ....    0.0000
   Turn off err/grad.   DampErr         ....    0.1000
 Fernandez-Rico         CNVRico         .... off

SCF Procedure:
 Maximum # iterations   MaxIter         ....   125
 SCF integral mode      SCFMode         .... Direct
   Integral package                     .... SHARK and LIBINT hybrid scheme
 Reset frequency        DirectResetFreq ....    20
 Integral Threshold     Thresh          ....  1.000e-10 Eh
 Primitive CutOff       TCut            ....  1.000e-11 Eh

Convergence Tolerance:
 Convergence Check Mode ConvCheckMode   .... Total+1el-Energy
 Convergence forced     ConvForced      .... 1
 Energy Change          TolE            ....  1.000e-06 Eh
 1-El. energy change                    ....  1.000e-03 Eh
 Orbital Gradient       TolG            ....  5.000e-05
 Orbital Rotation angle TolX            ....  5.000e-05
 DIIS Error             TolErr          ....  1.000e-06


Diagonalization of the overlap matrix:
Smallest eigenvalue                        ... 3.907e-04
Time for diagonalization                   ...    0.649 sec
Threshold for overlap eigenvalues          ... 1.000e-08
Number of eigenvalues below threshold      ... 0
Time for construction of square roots      ...    0.072 sec
Total time needed                          ...    0.721 sec

---------------------
INITIAL GUESS: MOREAD
---------------------
Guess MOs are being read from file: h2o.ges
Input Geometry matches current geometry (good)
Input basis set matches current basis set (good)
MOs were renormalized
MOs were reorthogonalized (Cholesky)
                      ------------------
                      INITIAL GUESS DONE (   0.1 sec)
                      ------------------
--------------
SCF ITERATIONS
--------------
ITER       Energy         Delta-E        Max-DP      RMS-DP      [F,P]     Damp
               ***  Starting incremental Fock matrix formation  ***
                      *** Initiating the SOSCF procedure ***
                      *** Re-Reading the Fockian *** 
                      *** Removing any level shift *** 
ITER      Energy       Delta-E        Grad      Rot      Max-DP    RMS-DP
  0    -76.06012735 -76.0601273517  0.000007  0.000007  0.000005  0.000000
               *** Restarting incremental Fock matrix formation ***
                 **** Energy Check signals convergence ****
              ***Rediagonalizing the Fockian in SOSCF/NRSCF***

               *****************************************************
               *                     SUCCESS                       *
               *           SCF CONVERGED AFTER   1 CYCLES          *
               *****************************************************


----------------
TOTAL SCF ENERGY
----------------

Total Energy       :          -76.06012735 Eh           -2069.70129 eV

Components:
Nuclear Repulsion  :            9.14202090 Eh             248.76704 eV
Electronic Energy  :          -85.20214825 Eh           -2318.46832 eV
One Electron Energy:         -122.94749211 Eh           -3345.57135 eV
Two Electron Energy:           37.74534385 Eh            1027.10302 eV

Virial components:
Potential Energy   :         -151.99770820 Eh           -4136.06791 eV
Kinetic Energy     :           75.93758085 Eh            2066.36663 eV
Virial Ratio       :            2.00161378


---------------
SCF CONVERGENCE
---------------

  Last Energy change         ...   -4.6683e-10  Tolerance :   1.0000e-06
  Last MAX-Density change    ...    4.4651e-06  Tolerance :   1.0000e-05
  Last RMS-Density change    ...    1.2919e-07  Tolerance :   1.0000e-06
  Last Orbital Gradient      ...    2.6735e-06  Tolerance :   5.0000e-05
  Last Orbital Rotation      ...    3.2302e-06  Tolerance :   5.0000e-05

             **** THE GBW FILE WAS UPDATED (h2o.gbw) ****
             **** DENSITY h2o.scfp WAS UPDATED ****
             **** ENERGY FILE WAS UPDATED (h2o.en.tmp) ****
             **** THE GBW FILE WAS UPDATED (h2o.gbw) ****
             **** DENSITY h2o.scfp WAS UPDATED ****
----------------
ORBITAL ENERGIES
----------------

  NO   OCC          E(Eh)            E(eV) 
   0   2.0000     -20.568512      -559.6977 
   1   2.0000      -1.351189       -36.7677 
   2   2.0000      -0.713363       -19.4116 
   3   2.0000      -0.585250       -15.9255 
   4   2.0000      -0.510103       -13.8806 
   5   0.0000       0.029327         0.7980 
   6   0.0000       0.047706         1.2982 
   7   0.0000       0.135836         3.6963 
   8   0.0000       0.158912         4.3242 
   9   0.0000       0.175177         4.7668 
  10   0.0000       0.183161         4.9841 
  11   0.0000       0.226874         6.1736 
  12   0.0000       0.244890         6.6638 
  13   0.0000       0.265496         7.2245 
  14   0.0000       0.299612         8.1529 
  15   0.0000       0.309881         8.4323 
  16   0.0000       0.365775         9.9533 
  17   0.0000       0.436993        11.8912 
  18   0.0000       0.465713        12.6727 
  19   0.0000       0.598895        16.2968 
  20   0.0000       0.658622        17.9220 
  21   0.0000       0.707645        19.2560 
  22   0.0000       0.722915        19.6715 
  23   0.0000       0.731691        19.9103 
  24   0.0000       0.830300        22.5936 
  25   0.0000       0.846443        23.0329 
  26   0.0000       0.892625        24.2896 
  27   0.0000       0.912139        24.8206 
  28   0.0000       0.918017        24.9805 
  29   0.0000       0.922314        25.0974 
  30   0.0000       0.930883        25.3306 
  31   0.0000       0.960579        26.1387 
  32   0.0000       1.020124        27.7590 
  33   0.0000       1.042449        28.3665 
  34   0.0000       1.082129        29.4462 
  35   0.0000       1.107800        30.1448 
  36   0.0000       1.176050        32.0019 
  37   0.0000       1.181709        32.1559 
  38   0.0000       1.261643        34.3311 
  39   0.0000       1.509366        41.0719 
  40   0.0000       1.533089        41.7175 
  41   0.0000       1.580815        43.0162 
  42   0.0000       1.806540        49.1585 
  43   0.0000       1.821549        49.5669 
  44   0.0000       1.980867        53.9021 
  45   0.0000       2.116139        57.5831 
  46   0.0000       2.262627        61.5692 
  47   0.0000       2.315138        62.9981 
  48   0.0000       2.327415        63.3322 
  49   0.0000       2.417969        65.7963 
  50   0.0000       2.420542        65.8663 
  51   0.0000       2.443342        66.4867 
  52   0.0000       2.480181        67.4892 
  53   0.0000       2.677651        72.8626 
  54   0.0000       2.698109        73.4193 
  55   0.0000       2.769867        75.3719 
  56   0.0000       2.812120        76.5217 
  57   0.0000       2.883016        78.4509 
  58   0.0000       3.650417        99.3329 
  59   0.0000       3.736263       101.6689 
  60   0.0000       4.017464       109.3208 
  61   0.0000       4.080411       111.0336 
  62   0.0000       4.158615       113.1617 
  63   0.0000       4.245947       115.5381 
  64   0.0000       4.282356       116.5288 
  65   0.0000       4.371971       118.9674 
  66   0.0000       4.376114       119.0801 
  67   0.0000       4.403430       119.8234 
  68   0.0000       4.517413       122.9251 
  69   0.0000       4.723574       128.5350 
  70   0.0000       4.839396       131.6867 
  71   0.0000       5.142159       139.9252 
  72   0.0000       5.148163       140.0886 
  73   0.0000       5.242871       142.6658 
  74   0.0000       5.315401       144.6394 
  75   0.0000       5.516694       150.1169 
  76   0.0000       5.655112       153.8834 
  77   0.0000       6.177087       168.0871 
  78   0.0000       6.511982       177.2000 
  79   0.0000       6.708284       182.5417 
  80   0.0000       6.897398       187.6877 
  81   0.0000       7.128899       193.9872 
  82   0.0000       7.249678       197.2738 
  83   0.0000       7.289163       198.3482 
  84   0.0000       7.308438       198.8727 
  85   0.0000       7.330557       199.4746 
  86   0.0000       7.352963       200.0843 
  87   0.0000       7.524372       204.7486 
  88   0.0000       7.889087       214.6730 
  89   0.0000       7.918413       215.4710 
  90   0.0000       8.792715       239.2620 
  91   0.0000      15.654812       425.9891 

                    ********************************
                    * MULLIKEN POPULATION ANALYSIS *
                    ********************************

-----------------------
MULLIKEN ATOMIC CHARGES
-----------------------
   0 H :    0.223635
   1 O :   -0.447269
   2 H :    0.223634
Sum of atomic charges:   -0.0000000

--------------------------------
MULLIKEN REDUCED ORBITAL CHARGES
--------------------------------
  0 H s       :     0.659649  s :     0.659649
      pz      :     0.045923  p :     0.098416
      px      :     0.020357
      py      :     0.032136
      dz2     :     0.000858  d :     0.018300
      dxz     :     0.008121
      dyz     :     0.001047
      dx2y2   :     0.002787
      dxy     :     0.005486
  1 O s       :     3.872694  s :     3.872694
      pz      :     1.797182  p :     4.555086
      px      :     1.221798
      py      :     1.536106
      dz2     :     0.001729  d :     0.018196
      dxz     :     0.002087
      dyz     :     0.003263
      dx2y2   :     0.001669
      dxy     :     0.009448
      f0      :     0.000283  f :     0.001292
      f+1     :     0.000316
      f-1     :     0.000127
      f+2     :     0.000047
      f-2     :     0.000376
      f+3     :     0.000027
      f-3     :     0.000119
  2 H s       :     0.659650  s :     0.659650
      pz      :     0.044746  p :     0.098416
      px      :     0.025331
      py      :     0.028338
      dz2     :     0.003164  d :     0.018301
      dxz     :     0.003983
      dyz     :     0.003043
      dx2y2   :     0.006407
      dxy     :     0.001703


                     *******************************
                     * LOEWDIN POPULATION ANALYSIS *
                     *******************************

----------------------
LOEWDIN ATOMIC CHARGES
----------------------
   0 H :   -0.510651
   1 O :    1.021304
   2 H :   -0.510654

-------------------------------
LOEWDIN REDUCED ORBITAL CHARGES
-------------------------------
  0 H s       :     0.588495  s :     0.588495
      pz      :     0.166176  p :     0.554674
      px      :     0.212915
      py      :     0.175584
      dz2     :     0.037834  d :     0.367481
      dxz     :     0.099041
      dyz     :     0.022115
      dx2y2   :     0.098850
      dxy     :     0.109641
  1 O s       :     3.013041  s :     3.013041
      pz      :     1.403511  p :     3.880707
      px      :     1.147956
      py      :     1.329241
      dz2     :     0.008712  d :     0.070106
      dxz     :     0.008128
      dyz     :     0.003943
      dx2y2   :     0.012991
      dxy     :     0.036332
      f0      :     0.001345  f :     0.014840
      f+1     :     0.001562
      f-1     :     0.000508
      f+2     :     0.000564
      f-2     :     0.003635
      f+3     :     0.002361
      f-3     :     0.004866
  2 H s       :     0.588496  s :     0.588496
      pz      :     0.176472  p :     0.554676
      px      :     0.169386
      py      :     0.208818
      dz2     :     0.053600  d :     0.367482
      dxz     :     0.057208
      dyz     :     0.063919
      dx2y2   :     0.116463
      dxy     :     0.076292


                      *****************************
                      * MAYER POPULATION ANALYSIS *
                      *****************************

  NA   - Mulliken gross atomic population
  ZA   - Total nuclear charge
  QA   - Mulliken gross atomic charge
  VA   - Mayer's total valence
  BVA  - Mayer's bonded valence
  FA   - Mayer's free valence

  ATOM       NA         ZA         QA         VA         BVA        FA
  0 H      0.7764     1.0000     0.2236     1.0311     1.0311    -0.0000
  1 O      8.4473     8.0000    -0.4473     1.9924     1.9924     0.0000
  2 H      0.7764     1.0000     0.2236     1.0311     1.0311     0.0000

  Mayer bond orders larger than 0.100000
B(  0-H ,  1-O ) :   0.9962 B(  1-O ,  2-H ) :   0.9962 

-------
TIMINGS
-------

Total SCF time: 0 days 0 hours 0 min 2 sec 

Total time                  ....       2.594 sec
Sum of individual times     ....       1.556 sec  ( 60.0%)

Fock matrix formation       ....       1.475 sec  ( 56.9%)
Diagonalization             ....       0.003 sec  (  0.1%)
Density matrix formation    ....       0.000 sec  (  0.0%)
Population analysis         ....       0.008 sec  (  0.3%)
Initial guess               ....       0.063 sec  (  2.4%)
Orbital Transformation      ....       0.000 sec  (  0.0%)
Orbital Orthonormalization  ....       0.061 sec  (  2.4%)
DIIS solution               ....       0.001 sec  (  0.0%)
SOSCF solution              ....       0.005 sec  (  0.2%)

Maximum memory used throughout the entire SCF-calculation: 235.5 MB


------------------------------------------------------------------------------- 
                              ORCA-MATRIX DRIVEN CI                            
------------------------------------------------------------------------------- 


Wavefunction type
-----------------
Correlation treatment                      ...      CCSD     
Single excitations                         ... ON
Orbital optimization                       ... OFF
Calculation of Z vector                    ... OFF
Calculation of Brueckner orbitals          ... OFF
Perturbative triple excitations            ... ON
Calculation of F12 correction              ... OFF
Frozen core treatment                      ... chemical core (2 el)
Reference Wavefunction                     ... RHF
  Internal Orbitals:     1 ...    4 (  4 MO's/  8 electrons)
  Virtual  Orbitals:     5 ...   91 ( 87 MO's              )
Number of AO's                             ...     92
Number of electrons                        ...     10
Number of correlated electrons             ...      8

Algorithmic settings
--------------------
Integral transformation                    ... All integrals via the RI transformation
K(C) Formation                             ... RI-DLPNO
   PNO-Integral Storage                    ... ON DISK
   PNO occupation number cut-off           ... 1.000e-07
   Singles PNO occupation number cut-off   ... 3.000e-09
   PNO Mulliken prescreening cut-off       ... 1.000e-03
   Domain cut-off (Mulliken population)    ... 1.000e-03
   PNO Normalization                       ...    1
Maximum number of iterations               ...        50
Convergence tolerance (max. residuum)      ... 2.500e-05
Level shift for amplitude update           ... 2.000e-01
Maximum number of DIIS vectors             ...         7
DIIS turned on at iteration                ...         0
Damping before turning on DIIS             ...     0.500
Damping after turning on DIIS              ...     0.000
Pair specific amplitude update             ... OFF
Natural orbital iterations                 ... OFF
Perturbative natural orbital generation    ... OFF
Printlevel                                 ... 2

Singles Fock matrix elements calculated using PNOs.

Memory handling:
----------------
Maximum memory for working arrays          ...    512 MB
Data storage in matrix containers          ... UNCOMPRESSED
Data type for integral storage             ... DOUBLE
In-Core Storage of quantities:
   Amplitudes+Sigma Vector      ... NO
   J+K operators                ... NO
   DIIS vectors                 ... NO
   3-external integrals         ... NO
   4-external integrals         ... NO

Localization treatment:
-----------------------
Localization option                        ...    6
Localization threshhold                    ... -1.0e+00
Using relative localization threshhold     ... 1.0e-08
Neglect threshold for strong pairs         ... 1.000e-05 Eh
Prescreening threshold for very weak pairs ... 1.000e-07 Eh

Initializing the integral package          ... done
Localizing the valence orbitals
------------------------------------------------------------------------------
                           ORCA ORBITAL LOCALIZATION
------------------------------------------------------------------------------

Input orbitals are from                  ... h2o.gbw
Output orbitals are to                   ... h2o.loc
Max. number of iterations                ... 128
Localizations seeded randomly            ... off
Convergence tolerance                    ... 1.000e-06
Using relative localization threshhold   ... 1.000e-08
Treshold for strong local MOs            ... 9.500e-01
Treshold for bond MOs                    ... 8.500e-01
Operator                                 ... 0
Orbital range for localization           ... 1 to 4
Localization criterion                   ... FOSTER-BOYS (AUGMENTED HESSIAN)
Doing the dipole integrals     ... o.k.
Initial value of the localization sum :   142.589123
ITERATION   0 : L=  144.3943719615 DL=  1.81e+00 (AVERGE_DL)=    0.5485206257 
ITERATION   1 : L=  144.6822841739 DL=  2.88e-01 (AVERGE_DL)=    0.2190556293 
ITERATION   2 : L=  144.7475031912 DL=  6.52e-02 (AVERGE_DL)=    0.1042585067 
ITERATION   3 : L=  144.7526688897 DL=  5.17e-03 (AVERGE_DL)=    0.0293419452 
ITERATION   4 : L=  144.7532771592 DL=  6.08e-04 (AVERGE_DL)=    0.0100686771 
ITERATION   5 : L=  144.7533463473 DL=  6.92e-05 (AVERGE_DL)=    0.0033957847 
ITERATION   6 : L=  144.7533536322 DL=  7.28e-06 (AVERGE_DL)=    0.0011018819 
ITERATION   7 : L=  144.7533543570 DL=  7.25e-07 (AVERGE_DL)=    0.0003475636 
LOCALIZATION SUM CONVERGED

------------------------------------------------------
AUGMENTED HESSIAN OPTIMIZATION OF FOSTER-BOYS ORBITALS
------------------------------------------------------

Spin operator:           0
Orbital window:          1 to 4
Number of iterations:    128
Gradient tolerance:      1.000e-06
Number of pairs:         6
Davidson threshold:      2000
Diagonalization method:  LAPACK
Iter:    0   L: 144.7533543570   Grad. norm: 5.128517e-04
   *** Likely close to a maximum now. ***
       Augmented Hessian eigenvalues:  1.53e-07 -1.28e+00 -3.16e+00 -4.61e+00 ... 
Iter:    1   L: 144.7533544333   Grad. norm: 7.253095e-08
LOCALIZATION HAS CONVERGED.

Eigenvalues of the Hessian:
  0 -1.285e+00
  1 -3.164e+00
  2 -4.612e+00
  3 -5.314e+00
  4 -7.165e+00
  5 -9.516e+00


------------------------------------------------------------------------------- 
                    LOCALIZED MOLECULAR ORBITAL COMPOSITIONS                   
------------------------------------------------------------------------------- 

The Mulliken populations for each LMO on each atom are computed
The LMO`s will be ordered according to atom index and type
  (A) Strongly localized MO`s have populations of >=0.950 on one atom
  (B) Two center bond orbitals have populations of >=0.850 on two atoms
  (C) Other MO`s are considered to be `delocalized`

FOUND  -   2 strongly local MO`s
       -   2 two center bond MO`s
       -   0 significantly delocalized MO`s

Rather strongly localized orbitals:
MO   2:   1O  -   1.000741
MO   1:   1O  -   1.000741
Bond-like localized orbitals:
MO   4:   2H  -   0.385264  and   1O  -   0.611338
MO   3:   1O  -   0.611338  and   0H  -   0.385263
Localized MO's were stored in: h2o.loc

Localizing the core orbitals
------------------------------------------------------------------------------
                           ORCA ORBITAL LOCALIZATION
------------------------------------------------------------------------------

Input orbitals are from                  ... h2o.loc
Output orbitals are to                   ... h2o.loc
Max. number of iterations                ... 128
Localizations seeded randomly            ... off
Convergence tolerance                    ... 1.000e-06
Using relative localization threshhold   ... 1.000e-08
Treshold for strong local MOs            ... 9.500e-01
Treshold for bond MOs                    ... 8.500e-01
Operator                                 ... 0
Orbital range for localization           ... 0 to 0
Localization criterion                   ... FOSTER-BOYS (AUGMENTED HESSIAN)
Doing the dipole integrals     ... o.k.

ORCA_LOC: ONLY ONE ORBITAL - SKIPPING LOCALIZATION


------------------------------------------------------------------------------- 
                    LOCALIZED MOLECULAR ORBITAL COMPOSITIONS                   
------------------------------------------------------------------------------- 

The Mulliken populations for each LMO on each atom are computed
The LMO`s will be ordered according to atom index and type
  (A) Strongly localized MO`s have populations of >=0.950 on one atom
  (B) Two center bond orbitals have populations of >=0.850 on two atoms
  (C) Other MO`s are considered to be `delocalized`

FOUND  -   1 strongly local MO`s
       -   0 two center bond MO`s
       -   0 significantly delocalized MO`s

Rather strongly localized orbitals:
MO   0:   1O  -   0.999476
Localized MO's were stored in: h2o.loc

Warning: reference  - re-canonicalizations have been set to INT 1 VIRT 1
Warning: internal orbitals are localized - no re-canonicalization of internal orbitals
Warning: UsePNO is turned on - no re-canonicalization of internal and virtual orbitals

--------------------------
CLOSED-SHELL FOCK OPERATOR
--------------------------

Restoring SHARK [2] ... ok
Time needed for Fock operator              ...            1.960 sec
Reference energy                           ...    -76.060127352

--------------
DLPNO SETTINGS (2015 fully linear scaling implementation)
--------------

TCutMKN:           1.000e-03
TCutPAO:           1.000e-03
TCutPNO:           1.000e-07
TCutPNOSingles:    3.000e-09
TCutEN:            9.700e-01
TCutPAOExt:        1.000e-01
TCutPairs:         1.000e-05
TCutPre:           1.000e-07
TCutOSV:           1.000e-06
TCutDOij:          1.000e-05
TCutDO:            5.000e-03
TCutC:             1.000e-04
TCutCPAO:          1.000e-03
TCutCMO:           1.000e-03
TScaleDOMP2PreScr: 2.000e+00
TScaleMKNMP2PreScr:1.000e+01
TScalePNOMP2PreScr:1.000e+00
PAO overlap thresh 1.000e-08
Using PNOs for Singles Fock computation
Use new domains
Use fully linear algorithm
TCutTNO:           1.000e-09
TCutMP2Pairs:      1.000e-06
TCutDOStrong:      2.000e-03
TCutMKNStrong:     1.000e-02
TCutMKNWeak:       1.000e-01
TCutDOWeak:        4.000e-03
NTCutTNO:          1

--------------------------
Mulliken population of the LMOs            ... ok
Performing proximity check                 ... 
 found 4 problematic atoms
   => In all likelyhood your results will be entirely fine!
   => In case you don't want to trust it, decrease TCutMKN to below 0.00037057.
   => but note that this is probably not necessary but will increase execution time
Calculating differential overlap integrals ... ok

--------------------------
ELECTRON PAIR PRESCREENING
--------------------------

Dipole-based pair screening          .... used

   TCutDOij = 1.000000e-05
   TCutPre  = 1.000000e-07
   .... Finished loop over pairs
Total time spent in the prescreening                  ...     0.001 sec
sum of pair energies estimated for screened out pairs ...       0.000000000000 Eh
Thresholds for map construction and integral transformation for crude MP2:
   TCutMKN                    ...     1.0e-02
   TCutDO                     ...     1.0e-02
   TCutPairs                  ...     1.0e-05
   TCutPNO_CrudeMP2           ...     1.0e-07
   TCutPNOSingles_CrudeMP2    ...     3.0e-09
--------------------------------
LOCAL RI TRANSFORMATION (IAVPAO)
--------------------------------

Orbital window:       1 to 4
Number of PAOs:      92
Basis functions:     92 (32 shells)
Aux. functions:     198 (56 shells)
Use SHARK:           on

Processing maps (0.0 sec)
Average map sizes:
   Aux shells -> MOs               4.0
   Aux shells -> PAOs             92.0
   MOs        -> AO shells        32.0
   PAOs       -> AO shells        32.0

Calculating integrals (0.3 sec, 0.558 MB)
Sorting integrals (0.0 sec, 0.556 MB)
Total time for the integral transformation: 0.4 sec
--------------------------------
INITIAL GUESS AND PNO GENERATION
--------------------------------

PNO truncation parameters                   .... 
    PAOOverlapThresh   =        1.000e-08

    TCutPairs          =        1.000e-05
    TCutPNO            =        1.000e-07
    TCutPNOSingles     =        3.000e-09
    TCutMP2Pairs       =        1.000e-06
    TCutMKN            =        1.000e-02
    TCutDO             =        1.000e-02

Pair selection                          .... not used
Type of local MP2 treatment                 .... semi-local MP2
Strategy for PNO selection                  .... occupation number selection
Pair density normalization                  .... MP2 norm
Spin component scaling                      .... not used

   .... Finished loop over pairs
Making pair pair interaction lists          ... done

                       ===========================
                         10 OF   10 PAIRS ARE KEPT CCSD PAIRS
                          0 OF   10 PAIRS ARE KEPT MP2 PAIRS FOR (T)
                          0 OF   10 PAIRS ARE SKIPPED
                       ===========================

Total time spent in the initial guess                 ...     0.107 sec
SL-MP2 correlation energy (all non-screened pairs)    ...      -0.260708570677 Eh

Initial PNO correlation energy                        ...      -0.260679182241 Eh
sum of pair energies prescreened and skipped MP2 pairs...       0.000000000000 Eh
sum of pair energies of crude MP2 skipped pairs only  ...       0.000000000000 Eh
sum of MP2 pair energies for pairs that were not kept ...       0.000000000000 Eh
sum of PNO error estimates for the kept pairs         ...      -0.000029388435 Eh
                                                          --------------------
sum of all corrections                                         -0.000029388435
Initial total correlation energy                               -0.260708570677
Thresholds for map construction and integral transformation for fine MP2 and CCSD(T) calculation:
   TCutMKN   ...     1.0e-03
   TCutDO    ...     5.0e-03
   TCutPairs ...     1.0e-05
   TCutCMO   ...     1.0e-03
   TCutCPAO  ...     1.0e-03

Thresholds for map construction and integral transformation for strong Triples:
   TCutMKN   ...     1.0e-02
   TCutDO    ...     1.0e-02
   TCutCMO   ...     1.0e-03
   TCutCPAO  ...     1.0e-03

Thresholds for map construction and integral transformation for weak Triples:
   TCutMKN   ...     1.0e-01
   TCutDO    ...     2.0e-02
   TCutCMO   ...     1.0e-03
   TCutCPAO  ...     1.0e-03

--------------------------------
LOCAL RI TRANSFORMATION (IAVPAO)
--------------------------------

Orbital window:       1 to 4
Number of PAOs:      92
Basis functions:     92 (32 shells)
Aux. functions:     198 (56 shells)
Use SHARK:           on

Processing maps (0.0 sec)
Average map sizes:
   Aux shells -> MOs               4.0
   Aux shells -> PAOs             92.0
   MOs        -> AO shells        32.0
   PAOs       -> AO shells        32.0

Calculating integrals (0.2 sec, 0.558 MB)
Sorting integrals (0.0 sec, 0.556 MB)
Total time for the integral transformation: 0.2 sec
--------------------------------
INITIAL GUESS AND PNO GENERATION
--------------------------------

PNO truncation parameters                   .... 
    ScaleTCutPNO       =        1.000e-02
    PAOOverlapThresh   =        1.000e-08

    TCutPairs          =        1.000e-05
    TCutPNO            =        1.000e-07
    TCutPNOSingles     =        3.000e-09
    TCutMP2Pairs       =        1.000e-06
    TCutMKN            =        1.000e-03
    TCutDO             =        5.000e-03

Pair selection                          .... not used
Type of local MP2 treatment                 .... full local PMP2
Strategy for PNO selection                  .... occupation number selection
Pair density normalization                  .... MP2 norm
Spin component scaling                      .... not used

PASS-1: Formation of initial guess LMP2 amplitudes
Initial amplitudes guess done. Entering LMP2 iteration loop:
   Max. no of iterations          ...  50
   Energy convergence tolerance   ...    1.0e-07
   Residual convergence tolerance ...    5.0e-07
   Fock matrix cutoff             ...    1.0e-05 Eh
   DIIS convergence acceleration parameters:
        Max # vectors in DIIS     ... 7
        Start iteration of DIIS   ... 0
        Levelshift                ... 2.000e-01
        Damping factor 1          ... 5.000e-01
        Damping factor 2          ... 1.000e+00
   L-MP2 PNO cut-off              ...   1.0e-09
   L-MP2 PNO cut-off (core)       ...   1.0e-11
                           *** Turning on DIIS ***
LMP2-Iter=   0:  ELMP2= -0.265716726262  DE=   5.0e-03 RMAX=   4.9e-03
LMP2-Iter=   1:  ELMP2= -0.268393294138  DE=   2.7e-03 RMAX=   2.0e-03
LMP2-Iter=   2:  ELMP2= -0.268780771835  DE=   3.9e-04 RMAX=   3.3e-04
LMP2-Iter=   3:  ELMP2= -0.268831765178  DE=   5.1e-05 RMAX=   1.3e-04
LMP2-Iter=   4:  ELMP2= -0.268836179485  DE=   4.4e-06 RMAX=   1.5e-05
LMP2-Iter=   5:  ELMP2= -0.268836177844  DE=   1.6e-09 RMAX=   5.4e-06
LMP2-Iter=   6:  ELMP2= -0.268836159822  DE=   1.8e-08 RMAX=   5.5e-07
LMP2-Iter=   7:  ELMP2= -0.268836156448  DE=   3.4e-09 RMAX=   1.2e-07
LMP2-Iter=   8:  ELMP2= -0.268836158078  DE=   1.6e-09 RMAX=   1.5e-08 => CONVERGED
PASS-2: Formation of Pair natural orbitals
   .... Finished loop over pairs

 PNO Occupation Number Statistics: 
  | Av. % of trace(Dij) retained        ...  99.995066063695
  | sigma^2 in % of trace(Dij) retained ...   6.01e-07
  | Av. % of trace(Di) retained         ...  99.999913820308
  | sigma^2 in % of trace(Di) retained  ...   3.89e-11
 Distributions of % trace(Dij) recovered:
  |       >= 99.9  ...    10 (100.0 % of all pairs)
 Distributions of % trace(Di) recovered :
  |       >= 99.9  ...     4 (100.0 % of all I-pairs )

Making pair pair interaction lists          ... done

                       ===========================
                         10 OF   10 PAIRS ARE KEPT
                       ===========================

Total time spent in the initial guess                 ...     0.823 sec
L-MP2 correlation energy (all non-screened pairs)     ...      -0.268836158078 Eh
L-MP2 PNO error correction                            ...      -0.000000058752 Eh
                                                          --------------------
Initial total L-MP2 energy (non-screened pairs)       ...      -0.268836216830 Eh

Initial PNO correlation energy                        ...      -0.268803686526 Eh
sum of pair energies estimated for screened out pairs ...       0.000000000000 Eh
sum of MP2 pair energies for pairs that were not kept ...       0.000000000000 Eh
sum of PNO error estimates for the kept pairs         ...      -0.000032530304 Eh
                                                          --------------------
sum of all corrections                                         -0.000032530304
Initial total correlation energy                               -0.268836216830
Thresholds for map construction and integral transformation for fine MP2 and CCSD(T) calculation:
   TCutMKN   ...     1.0e-03
   TCutDO    ...     5.0e-03
   TCutPairs ...     1.0e-05
   TCutCMO   ...     1.0e-03
   TCutCPAO  ...     1.0e-03

Time for aux screen maps:            0.000
Time for maps after fine MP2:            0.000
-----------------------------
LOCAL RI TRANSFORMATION (IJV)
-----------------------------

Orbital window:       1 to 4
Basis functions:     92 (32 shells)
Aux. functions:     198 (56 shells)
Use SHARK:           on

Processing maps (0.0 sec)
Average map sizes:
   Aux shells -> MOs(i)            4.0
   Aux shells -> MOs(j)            4.0
   MOs        -> AO shells        32.0

Calculating integrals (0.2 sec, 0.026 MB)
Sorting integrals (0.0 sec, 0.024 MB)
Total time for the integral transformation: 0.2 sec
--------------------------------
LOCAL RI TRANSFORMATION (VABPAO)
--------------------------------

Number of PAOs:      92
Basis functions:     92 (32 shells)
Aux. functions:     198 (56 shells)
Use SHARK:           on

Processing maps (0.0 sec)
Average map sizes:
   Aux shells -> PAOs             92.0
   PAOs       -> AO shells        32.0

Calculating integrals (0.2 sec, 12.788 MB)
Finished


-------------------------------------
Pair Pair Term precalculation with     
RI-(ij|mn) and (im|jn) transformation  
ON THE FLY                             
-------------------------------------

   IBatch   1 (of   2)              ... done (    1.388 sec)
   IBatch   2 (of   2)              ... done (    0.144 sec)
Total EXT                           ...           1.533 sec

---------------------
RI-PNO TRANSFORMATION
---------------------

Total Number of PNOs                   ...   605
Average number of PNOs per pair        ...    60
Maximal number of PNOs per pair        ...    64
   #pairs with  1 -  5 PNOs   :    0
   #pairs with  6 - 10 PNOs   :    0
   #pairs with 11 - 15 PNOs   :    0
   #pairs with 16 - 20 PNOs   :    0
   #pairs with 21 - 25 PNOs   :    0
   #pairs with 26 - 30 PNOs   :    0
   #pairs with 31 - 35 PNOs   :    0
   #pairs with 36 - 40 PNOs   :    0
   #pairs with 41 - 45 PNOs   :    0
   #pairs with 46 - 50 PNOs   :    0
   #pairs with 51 - 55 PNOs   :    2
   #pairs with 56 - 60 PNOs   :    2
   #pairs with 61 - 65 PNOs   :    6

Generation of (ij|ab)[P] integrals            ... on
Generation of (ia|bc)[P],(ja|bc)[P] integrals ... on
Storage of 3 and 4 external integrals         ... on
Generation of ALL (ka|bc)[P] integrals        ... on
Keep RI integrals in memory                   ... off

Ibatch:  1 (of  1)
Starting 2-4 index PNO integral generation ... done

Timings:
Total PNO integral transformation time     ...          1.388 sec
Size of the 3-external file                ...        17 MB
Size of the 4-external file                ...       135 MB
Size of the IKJL file                      ...         0 MB
Size of the all 3-external file            ...        34 MB
Size of the 1-external file                ...         0 MB

Making pair/pair overlap matrices          ... done (    0.035 sec)
Size of the pair overlap file              ... 3 MB
Redoing the guess amplitudes               ... done (    0.002 sec)

-------------------------
FINAL STARTUP INFORMATION
-------------------------

E(0)                                       ...    -76.060127352
E(L-MP2)                                   ...     -0.268836217
E(L-MP2) including corrections             ...     -0.268836217
Initial E(tot)                             ...    -76.328963569
<T|T>                                      ...      0.057842388
Number of pairs included                   ... 10
Total number of pairs                      ... 10

------------------------------------------------
                  RHF COUPLED CLUSTER ITERATIONS
------------------------------------------------

Number of PNO amplitudes to be optimized   ...        36771
Number of non-PNO amplitudes               ...        75690
Untruncated number of regular amplitudes   ...        75690

Iter       E(tot)           E(Corr)          Delta-E          Residual     Time
  0    -76.320848486     -0.260688604      0.008147613      0.012309854    5.95
                           *** Turning on DIIS ***
  1    -76.326595135     -0.266435253     -0.005746649      0.006838469    6.05
  2    -76.332294798     -0.272134915     -0.005699662      0.001999028    5.99
  3    -76.333405310     -0.273245428     -0.001110512      0.001045204    6.13
  4    -76.333705003     -0.273545121     -0.000299693      0.000444845    5.97
  5    -76.333775723     -0.273615840     -0.000070719      0.000181771    5.98
  6    -76.333791312     -0.273631429     -0.000015589      0.000053608    5.96
  7    -76.333793629     -0.273633746     -0.000002317      0.000017934    6.01
               --- The Coupled-Cluster iterations have converged ---

----------------------
COUPLED CLUSTER ENERGY
----------------------

E(0)                                       ...    -76.060127352
E(CORR)(strong-pairs)                      ...     -0.273633746
E(CORR)(weak-pairs)                        ...     -0.000032530
E(CORR)(corrected)                         ...     -0.273666277
E(TOT)                                     ...    -76.333793629
Singles Norm <S|S>**1/2                    ...      0.028117867  
T1 diagnostic                              ...      0.009941167  

------------------
LARGEST AMPLITUDES
------------------
   3->  5   3->  5       0.034227
   4->  5   4->  5       0.034227
   1-> 17   1-> 17       0.026314
   2-> 17   2-> 17       0.026314
   3-> 12   3->  5       0.026137
   3->  5   3-> 12       0.026137
   4->  5   4-> 12       0.026136
   4-> 12   4->  5       0.026136
   3-> 12   3-> 12       0.024929
   4-> 12   4-> 12       0.024929
   1-> 17   1->  5       0.018986
   1->  5   1-> 17       0.018986
   2-> 17   2->  5       0.018986
   2->  5   2-> 17       0.018986
   3->  9   3->  9       0.016977
   4->  9   4->  9       0.016976


-------------------------------------------
DLPNO BASED TRIPLES CORRECTION
-------------------------------------------

Singles multiplier          ...  1.000000
TCutTNO                     ... 1.000e-09
TCutMP2Pairs                ... 1.000e-06
TCutDOStrong                ... 1.000e-02
TCutMKNStrong               ... 1.000e-02
TCutDOWeak                  ... 2.000e-02
TCutMKNWeak                 ... 1.000e-01

Fragment selection                          .... not used
Fock matrix occ-virt block is zero --> Setting DT_in_Triples to false.
Number of Triples that are to be computed   ...        16

 . . . . . . . . .
10% done  
20% done  
30% done  
40% done  
50% done  
60% done  
70% done  
80% done  
90% done               (      2.487 sec)
Triples timings:
Total time for T0               ...     2.604 sec
Total time for Iterative (T)    ...     0.000 sec
Total time of overall (T)       ...     2.604 sec

Triples List generation         ...     0.000 sec
TNO generation                  ...     0.113 sec
Pair density generation         ...     0.001 sec
Look up tables                  ...     0.000 sec
Generating 3-index integrals    ...     0.420 sec
  Make 4-ind.int. from 3-ind.int...     0.366 sec
  Projecting amplitudes (D + S) ...     0.038 sec
  Downprojecting integrals      ...     0.000 sec
  Energy contr. (sum over a,b,c)...     1.204 sec
Fitting ET(->0)                 ...     0.000 sec

Everything after 3-index        ...     2.067 sec

Timing details:
 TNO integrals                  ...     0.742 sec
   Reading 3-index integrals    ...     0.005 sec
   Sorting integrals            ...     0.198 sec
       Sorting integrals 1      ...     0.000 sec
       Sorting integrals 2      ...     0.033 sec
       Sorting integrals 3      ...     0.013 sec
       Sorting integrals 4      ...     0.000 sec
       Sorting integrals 5      ...     0.001 sec
       Sorting integrals 6      ...     0.151 sec
   Calculating local VM**-1/2   ...     0.005 sec
   Orthogonal. integrals        ...     0.018 sec
   Multipl. 3-index integrals   ...     0.517 sec
   All concerning IRIab (w/TNO) ...     0.167 sec

 Calculate W0/W1                ...     0.459 sec
 W 3-ext contribution           ...     0.308 sec
 W 3-int contribution           ...     0.039 sec
 Sorting W                      ...     0.098 sec

 V exchange contribution        ...     0.575 sec

 Timings for Triples without generation
     of 3-index integrals       ...     2.067 sec
       0 weak pairs             ...     2.067 sec
       1 weak pair              ...     0.000 sec
       2 weak pairs             ...     0.000 sec
       3 weak pairs             ...     0.000 sec
  Extra time for extrapolation  ...     0.000 sec

Number of Triples   (0, 1, 2, 3 weak pairs; overall):     16       0       0       0  (    16)
Number of Atoms     (0, 1, 2, 3 weak pairs; overall):    3.0     0.0     0.0     0.0  (     3)
Number of PAOs      (0, 1, 2, 3 weak pairs; overall):   92.0     0.0     0.0     0.0  (    92)
Number of AuxFcns   (0, 1, 2, 3 weak pairs; overall):  157.8     0.0     0.0     0.0  (   198)
Number of TNOs      (0, 1, 2, 3 weak pairs         ):   81.0     0.0     0.0     0.0
Aver. Number of NTNO, Atoms, PAOs, AuxFcns / Triples:     16    81.0     3.0    92.0   157.8

Triples Correction (T)                     ...     -0.008349012
Final correlation energy                   ...     -0.282015288
E(CCSD)                                    ...    -76.333793629
E(CCSD(T))                                 ...    -76.342142641



------------------------------------------------------------------------------- 
                                     TIMINGS                                   
------------------------------------------------------------------------------- 


Total execution time                   ...       60.026 sec

Localization of occupied MO's          ...        1.184 sec (  2.0%)
Fock Matrix Formation                  ...        1.960 sec (  3.3%)
Global overlap, Fock, MKN matrices     ...        0.384 sec (  0.6%)
Differential overlap integrals         ...        0.338 sec (  0.6%)
Organizing maps                        ...        0.010 sec (  0.0%)
RI 3-index integral generations        ...        0.975 sec (  1.6%)
RI-PNO integral transformation         ...        2.994 sec (  5.0%)
Initial Guess                          ...        0.961 sec (  1.6%)
DIIS Solver                            ...        0.407 sec (  0.7%)
State Vector Update                    ...        0.001 sec (  0.0%)
Sigma-vector construction              ...       47.931 sec ( 79.9%)
  <D|H|D>(0-ext)                       ...        0.118 sec (  0.2% of sigma)
  <D|H|D>(2-ext Fock)                  ...        0.008 sec (  0.0% of sigma)
  <D|H|D>(2-ext)                       ...        0.431 sec (  0.9% of sigma)
  <D|H|D>(4-ext)                       ...       12.002 sec ( 25.0% of sigma)
  <D|H|D>(4-ext-corr)                  ...       33.372 sec ( 69.6% of sigma)
  CCSD doubles correction              ...        0.016 sec (  0.0% of sigma)
  <S|H|S>                              ...        0.106 sec (  0.2% of sigma)
  <S|H|D>(1-ext)                       ...        0.037 sec (  0.1% of sigma)
  <D|H|S>(1-ext)                       ...        0.002 sec (  0.0% of sigma)
  <S|H|D>(3-ext)                       ...        0.220 sec (  0.5% of sigma)
  Fock-dressing                        ...        0.929 sec (  1.9% of sigma)
  Singles amplitudes                   ...        0.008 sec (  0.0% of sigma)
  (ik|jl)-dressing                     ...        0.116 sec (  0.2% of sigma)
  (ij|ab),(ia|jb)-dressing             ...        0.454 sec (  0.9% of sigma)
  Pair energies                        ...        0.002 sec (  0.0% of sigma)
Total Time for computing (T)           ...        2.605 sec (  4.3% of ALL)


Maximum memory used throughout the entire MDCI-calculation: 479.0 MB

-------------------------   --------------------
FINAL SINGLE POINT ENERGY       -76.342142640602
-------------------------   --------------------


                            ***************************************
                            *     ORCA property calculations      *
                            ***************************************


  WARNING: The energy has been calculated at the MDCI level but the densities
           used in the property calculations are still SCF densities
           MDCI response densities have not been calculated 
           use %mdci Density linearized end
           or  %mdci Density unrelaxed end
           or  %mdci Density orbopt end

                                    ---------------------
                                    Active property flags
                                    ---------------------
   (+) Dipole Moment


------------------------------------------------------------------------------
                       ORCA ELECTRIC PROPERTIES CALCULATION
------------------------------------------------------------------------------

Dipole Moment Calculation                       ... on
Quadrupole Moment Calculation                   ... off
Polarizability Calculation                      ... off
GBWName                                         ... h2o.gbw
Electron density                                ... h2o.scfp
The origin for moment calculation is the CENTER OF MASS  = ( 0.691498, -1.209966 -5.787862)

-------------
DIPOLE MOMENT
-------------
                                X             Y             Z
Electronic contribution:      0.03951      -0.17972       0.08485
Nuclear contribution   :     -0.19285       0.87723      -0.41416
                        -----------------------------------------
Total Dipole Moment    :     -0.15334       0.69751      -0.32931
                        -----------------------------------------
Magnitude (a.u.)       :      0.78644
Magnitude (Debye)      :      1.99896



--------------------
Rotational spectrum 
--------------------
 
Rotational constants in cm-1:    26.673507    14.562119     9.419592 
Rotational constants in MHz : 799651.632818 436561.334848 282392.268458 

 Dipole components along the rotational axes: 
x,y,z [a.u.] :    -0.000003     0.786436    -0.000000 
x,y,z [Debye]:    -0.000007     1.998962    -0.000000 

 

Timings for individual modules:

Sum of individual times         ...       68.049 sec (=   1.134 min)
GTO integral calculation        ...        2.761 sec (=   0.046 min)   4.1 %
SCF iterations                  ...        3.363 sec (=   0.056 min)   4.9 %
MDCI module                     ...       61.925 sec (=   1.032 min)  91.0 %
                             ****ORCA TERMINATED NORMALLY****
TOTAL RUN TIME: 0 days 0 hours 1 minutes 9 seconds 910 msec
