 Entering Gaussian System, Link 0=g16
 Input=deformation46.com
 Output=deformation46.log
 Initial command:
 /home/spantaleone/g16/l1.exe "/scratch/cnt0027/pag0797/spantaleone/tino/deformation_on_good/46/deformation/Gau-28071.inp" -scrdir="/scratch/cnt0027/pag0797/spantaleone/tino/deformation_on_good/46/deformation/"
 Entering Link 1 = /home/spantaleone/g16/l1.exe PID=     28072.
  
 Copyright (c) 1988-2017, Gaussian, Inc.  All Rights Reserved.
  
 This is part of the Gaussian(R) 16 program.  It is based on
 the Gaussian(R) 09 system (copyright 2009, Gaussian, Inc.),
 the Gaussian(R) 03 system (copyright 2003, Gaussian, Inc.),
 the Gaussian(R) 98 system (copyright 1998, Gaussian, Inc.),
 the Gaussian(R) 94 system (copyright 1995, Gaussian, Inc.),
 the Gaussian 92(TM) system (copyright 1992, Gaussian, Inc.),
 the Gaussian 90(TM) system (copyright 1990, Gaussian, Inc.),
 the Gaussian 88(TM) system (copyright 1988, Gaussian, Inc.),
 the Gaussian 86(TM) system (copyright 1986, Carnegie Mellon
 University), and the Gaussian 82(TM) system (copyright 1983,
 Carnegie Mellon University). Gaussian is a federally registered
 trademark of Gaussian, Inc.
  
 This software contains proprietary and confidential information,
 including trade secrets, belonging to Gaussian, Inc.
  
 This software is provided under written license and may be
 used, copied, transmitted, or stored only in accord with that
 written license.
  
 The following legend is applicable only to US Government
 contracts under FAR:
  
                    RESTRICTED RIGHTS LEGEND
  
 Use, reproduction and disclosure by the US Government is
 subject to restrictions as set forth in subparagraphs (a)
 and (c) of the Commercial Computer Software - Restricted
 Rights clause in FAR 52.227-19.
  
 Gaussian, Inc.
 340 Quinnipiac St., Bldg. 40, Wallingford CT 06492
  
  
 ---------------------------------------------------------------
 Warning -- This program may not be used in any manner that
 competes with the business of Gaussian, Inc. or will provide
 assistance to any competitor of Gaussian, Inc.  The licensee
 of this program is prohibited from giving any competitor of
 Gaussian, Inc. access to this program.  By using this program,
 the user acknowledges that Gaussian, Inc. is engaged in the
 business of creating and licensing software in the field of
 computational chemistry and represents and warrants to the
 licensee that it is not a competitor of Gaussian, Inc. and that
 it will not use this program in any manner prohibited above.
 ---------------------------------------------------------------
  

 Cite this work as:
 Gaussian 16, Revision B.01,
 M. J. Frisch, G. W. Trucks, H. B. Schlegel, G. E. Scuseria, 
 M. A. Robb, J. R. Cheeseman, G. Scalmani, V. Barone, 
 G. A. Petersson, H. Nakatsuji, X. Li, M. Caricato, A. V. Marenich, 
 J. Bloino, B. G. Janesko, R. Gomperts, B. Mennucci, H. P. Hratchian, 
 J. V. Ortiz, A. F. Izmaylov, J. L. Sonnenberg, D. Williams-Young, 
 F. Ding, F. Lipparini, F. Egidi, J. Goings, B. Peng, A. Petrone, 
 T. Henderson, D. Ranasinghe, V. G. Zakrzewski, J. Gao, N. Rega, 
 G. Zheng, W. Liang, M. Hada, M. Ehara, K. Toyota, R. Fukuda, 
 J. Hasegawa, M. Ishida, T. Nakajima, Y. Honda, O. Kitao, H. Nakai, 
 T. Vreven, K. Throssell, J. A. Montgomery, Jr., J. E. Peralta, 
 F. Ogliaro, M. J. Bearpark, J. J. Heyd, E. N. Brothers, K. N. Kudin, 
 V. N. Staroverov, T. A. Keith, R. Kobayashi, J. Normand, 
 K. Raghavachari, A. P. Rendell, J. C. Burant, S. S. Iyengar, 
 J. Tomasi, M. Cossi, J. M. Millam, M. Klene, C. Adamo, R. Cammi, 
 J. W. Ochterski, R. L. Martin, K. Morokuma, O. Farkas, 
 J. B. Foresman, and D. J. Fox, Gaussian, Inc., Wallingford CT, 2016.
 
 ******************************************
 Gaussian 16:  ES64L-G16RevB.01 20-Dec-2017
                25-Jan-2021 
 ******************************************
 %nosave
 %nproc=24
 Will use up to   24 processors via shared memory.
 %mem=24gb
 %chk=input
 ----------------------------------------------------------------------
 #P ONIOM(B97D3/aug-cc-pvtz:external="/home/spantaleone/xtb_6.3.3/xtb-6
 .3.3/scripts/xtb-gaussian")
 ----------------------------------------------------------------------
 1/38=1,52=2,172=1/1;
 2/12=2,17=6,18=5,40=1/2;
 1/38=1,52=2,53=3172/20;
 3/11=9,25=1,30=1,41=9900000,43=2/1;
 4/20=17,24=3,113=1,114=1/2;
 6/7=2,8=2,9=2,10=2/1;
 1/52=2,53=2032/20;
 3/5=16,6=1,7=10,11=2,25=1,30=1,74=-59/1,2,3;
 4//1;
 5/5=2,38=5/2;
 6/7=2,8=2,9=2,10=2,28=1/1;
 1/52=2,53=1022/20;
 3/11=9,25=1,30=1,41=9900000,43=2/1;
 4/20=17,24=3,113=1,114=2/2;
 6/7=2,8=2,9=2,10=2/1;
 1/52=2,53=3014/20;
 99/5=1,9=1/99;
 Leave Link    1 at Mon Jan 25 15:08:45 2021, MaxMem=  3221225472 cpu:               1.7 elap:               0.1
 (Enter /home/spantaleone/g16/l101.exe)
 -----
 Title
 -----
 Symbolic Z-matrix:
 Charge =  0 Multiplicity = 1 for low   level calculation on real  system.
 Charge =  0 Multiplicity = 1 for high  level calculation on model system.
 Charge =  0 Multiplicity = 1 for low   level calculation on model system.
 H                    -1.77901   0.01438   2.49365  M 
 O                    -0.8015    0.04805   2.57326  M 
 H                    -0.52193  -0.83497   2.91168  M 
 H                    -0.39643  -1.84236  -2.81686  M 
 O                    -0.47128  -1.8447   -1.84984  M 
 H                    -1.41935  -1.75254  -1.65847  M 
 H                    -2.74806   1.88502   0.84333  M 
 O                    -2.64906   1.23254   0.12969  M 
 H                    -1.8645    1.51157  -0.37651  M 
 H                    -3.7428    1.92419  -3.02841  M 
 O                    -3.22999   2.25964  -3.80049  M 
 H                    -2.32671   2.40071  -3.49825  M 
 H                    -0.10547  -0.57975  -0.77386  M 
 O                     0.01636   0.16139  -0.14936  M 
 H                    -0.40943  -0.11403   0.67299  M 
 H                     0.95497  -1.93076  -4.74361  M 
 O                     0.0178   -2.11315  -4.56328  M 
 H                    -0.06913  -3.07821  -4.58479  M 
 H                    -4.94732   2.42062  -1.29276  M 
 O                    -4.57813   1.58962  -1.65022  M 
 H                    -3.90098   1.32579  -0.98283  M 
 H                    -3.55993   3.45382   2.46299  M 
 O                    -2.83562   2.83329   2.25298  M 
 H                    -2.06443   3.18847   2.73224  M 
 H                     2.55442   0.28577  -2.92664  M 
 O                     1.95129  -0.34163  -2.47818  M 
 H                     1.04727  -0.03922  -2.68951  M 
 H                    -1.13991   0.32182  -3.5837   M 
 O                    -0.33585   0.80919  -3.30899  M 
 H                    -0.58606   1.41754  -2.59423  M 
 H                     2.6759   -0.5037    0.59555  M 
 O                     2.5834   -1.26117  -0.01825  M 
 H                     2.32029  -0.89416  -0.88374  M 
 H                    -2.84883  -0.42836  -0.56526  M 
 O                    -2.98409  -0.90651  -1.39422  M 
 H                    -3.78746  -1.45124  -1.30924  M 
 H                     2.81767   1.30938  -0.80349  M 
 O                     1.99634   1.82143  -0.69582  M 
 H                     1.28357   1.17411  -0.51066  M 
 H                     0.55948   3.19225  -3.26961  M 
 O                     1.47843   3.01517  -3.02949  M 
 H                     1.48295   2.56845  -2.16339  M 
 H                     0.13416  -3.93903  -0.46632  M 
 O                    -0.10236  -4.63674  -1.11913  M 
 H                    -0.88085  -5.08483  -0.72133  M 
 H                    -6.24995   2.22961   3.00095  M 
 O                    -6.30841   2.44781   3.96793  M 
 H                    -7.05769   1.92441   4.31437  M 
 H                     1.15137  -3.63925   1.3809   M 
 O                     0.73373  -3.00387   0.77071  M 
 H                     1.41205  -2.34844   0.5074   M 
 H                    -2.90878   5.25925  -1.06342  M 
 O                    -2.72647   4.47177  -0.51694  M 
 H                    -3.6136    4.10621  -0.31815  M 
 H                    -5.5053   -1.19572   1.72436  M 
 O                    -5.23397  -0.57179   1.01776  M 
 H                    -5.34095  -1.04594   0.18778  M 
 H                    -0.33288  -3.09264   3.11042  M 
 O                    -0.02636  -2.27451   3.53559  M 
 H                     0.91797  -2.17553   3.32931  M 
 H                     5.24746   1.0776   -1.16178  M 
 O                     4.46217   0.55105  -0.95466  M 
 H                     4.69325   0.1524   -0.08571  M 
 H                     0.72796   2.47384   1.03087  M 
 O                     0.7205    2.15247   1.94173  M 
 H                     0.11184   1.39409   2.00535  M 
 H                     4.45197  -0.47241  -2.29931  M 
 O                     4.65231  -0.97332  -3.12218  M 
 H                     5.13448  -0.33887  -3.69232  M 
 H                     3.04481   3.306    -1.03162  M 
 O                     3.92242   3.71     -1.01669  M 
 H                     4.40796   3.4041   -1.80674  M 
 H                    -5.87375  -1.48394  -1.85653  M 
 O                    -5.34379  -2.17551  -1.40333  M 
 H                    -5.25648  -2.90301  -2.04325  M 
 H                    -4.90622  -3.99298   1.32847  M 
 O                    -5.5955   -3.36931   1.03383  M 
 H                    -5.36547  -3.09996   0.13434  M 
 H                     2.71135   2.14866  -3.67987  M 
 O                     3.38604   1.46569  -3.87246  M 
 H                     3.4575    1.41022  -4.831    M 
 H                    -5.16281   3.96656   3.69074  M 
 O                    -4.59221   4.54582   3.17469  M 
 H                    -4.06664   5.09122   3.79839  M 
 H                     0.6414    0.98268  -4.72615  M 
 O                     1.13202   0.85247  -5.56351  M 
 H                     1.73909   0.10292  -5.39052  M 
 H                     1.02467   5.80816  -2.36535  M 
 O                     1.8178    5.49103  -1.90052  M 
 H                     2.37248   5.03232  -2.5623   M 
 H                    -2.78138  -3.45841  -1.71246  M 
 O                    -2.92623  -3.70072  -0.78154  M 
 H                    -3.69457  -4.28732  -0.74342  M 
 H                     2.0781    5.1491   -4.60494  M 
 O                     1.20276   5.22941  -5.02222  M 
 H                     1.19223   4.52037  -5.69304  M 
 H                     7.76902   1.89431  -0.91841  M 
 O                     6.98112   1.52471  -1.35754  M 
 H                     7.3418    0.8295   -1.94489  M 
 H                     4.50226   2.84823   0.31482  M 
 O                     4.83611   2.5057    1.16877  M 
 H                     4.76327   3.26601   1.78236  M 
 H                     1.07176  -3.15504  -2.11166  M 
 O                     1.93017  -3.00799  -2.53395  M 
 H                     2.01641  -2.03302  -2.58269  M 
 H                     1.18108   4.65309  -0.65296  M 
 O                     0.72344   4.1944    0.08773  M 
 H                     0.04474   4.80879   0.42001  M 
 H                    -5.74396   1.05862   1.24182  M 
 O                    -6.23141   1.88836   1.4173   M 
 H                    -7.16354   1.64593   1.18413  M 
 H                    -2.26844  -2.58885   0.31826  M 
 O                    -1.79332  -2.00714   0.94191  M 
 H                    -0.88303  -2.34697   0.94408  M 
 H                    -3.67669  -0.24236   4.2922   M 
 O                    -3.66896  -0.35969   5.26962  M 
 H                    -4.422    -0.93505   5.53493  M 
 H                    -6.057    -2.78376   3.2812   M 
 O                    -5.61399  -1.92224   3.35427  M 
 H                    -4.66087  -2.1469    3.35656  M 
 H                    -2.85721  -0.40567  -2.97722  M 
 O                    -2.59554  -0.48634  -3.92142  M 
 H                    -2.43502  -1.45421  -3.98262  M 
 H                    -3.43514  -3.41266  -3.65386  M 
 O                    -2.57695  -3.0263   -3.41254  M 
 H                    -1.88221  -3.66295  -3.67409  M 
 H                     3.22598  -1.1737   -4.23485  M 
 O                     2.67307  -1.30539  -5.02878  M 
 H                     3.30582  -1.48621  -5.74266  M 
 H                     4.67437   2.29604  -6.63948  M 
 O                     4.1453    1.47235  -6.63986  M 
 H                     3.30755   1.69863  -7.05217  M 
 H                    -4.18331   1.08298   5.78338  M 
 O                    -4.66743   1.91144   6.03205  M 
 H                    -5.23208   2.12122   5.26077  M 
 H                    -3.948    -0.02952   2.01808  M 
 O                    -3.41021   0.2961    2.75993  M 
 H                    -3.32875   1.26672   2.66331  M 
 H                    -5.7982    0.57736  -2.23793  M 
 O                    -6.33915  -0.09647  -2.69948  M 
 H                    -5.91197  -0.20387  -3.57141  M 
 H                     1.90234  -3.82809  -4.06502  M 
 O                     1.83799  -4.29522  -4.92025  M 
 H                     1.46156  -5.16665  -4.70667  M 
 H                     4.48489  -3.51613  -0.58985  M 
 O                     4.76172  -2.75575  -0.03113  M 
 H                     3.99764  -2.13333  -0.04384  M 
 H                    -0.248     3.05689  -0.92466  M 
 O                    -0.99636   2.67172  -1.41089  M 
 H                    -1.71176   3.33025  -1.29054  M 
 H                     1.75907   4.46884   1.51638  M 
 O                     2.21314   4.6167    2.36599  M 
 H                     2.0248    3.83461   2.90804  M 
 H                     3.70533   1.25506   1.63939  M 
 O                     2.93585   0.67707   1.808    M 
 H                     2.16219   1.26139   1.92713  M 
 H                     3.15604  -3.9353   -2.01893  M 
 O                     3.85696  -4.55368  -1.69914  M 
 H                     4.53425  -4.57326  -2.39291  M 
 H                     4.98225  -3.78478  -4.46857  M 
 O                     5.41334  -3.45651  -3.64154  M 
 H                     5.00437  -2.59839  -3.41066  M 
 H                    -1.08256   5.1298    2.06649  M 
 O                    -1.26313   5.67335   1.26415  M 
 H                    -1.89717   5.16767   0.69326  M 
 H                    -5.69052   3.2204    0.45627  M 
 O                    -5.24064   3.71404  -0.25562  M 
 H                    -5.69345   4.567    -0.41941  M 
 H                     5.03218  -3.76383   2.97595  M 
 O                     4.27786  -3.58881   2.40705  M 
 H                     4.60909  -3.31546   1.52169  M 
 H                     5.84704  -1.2148    1.36392  M 
 O                     5.44637  -0.32314   1.34426  M 
 H                     6.22965   0.25963   1.38278  M 
 H                     1.65022  -6.65693  -3.05867  H 
 O                     1.42248  -6.83965  -3.99948  H 
 H                     2.296    -7.00572  -4.39873  H 
 H                    -7.19459  -3.57779   0.84384  M 
 O                    -8.16231  -3.57805   0.64319  M 
 H                    -8.62207  -3.37585   1.48717  M 
 H                     3.24299  -2.33848   2.83823  M 
 O                     2.55567  -1.66914   3.01849  M 
 H                     2.77634  -0.86959   2.50737  M 
 H                    -1.91648   2.7881    5.0808   M 
 O                    -2.63533   3.43169   5.22181  M 
 H                    -3.37429   2.93076   5.61598  M 
 H                    -0.8096    0.99766   3.99502  M 
 O                    -0.68965   1.5597    4.79309  M 
 H                     0.14856   2.01355   4.65365  M 
 H                     0.25747   3.40977  -6.95446  M 
 O                     1.2125    3.21562  -6.83102  M 
 H                     1.23127   2.37053  -6.34274  M 
 H                     7.16187  -2.72985   4.74199  M 
 O                     6.40782  -3.1879    4.30026  M 
 H                     5.60129  -2.83078   4.7417   M 
 H                     7.99539   1.57013   1.38049  M 
 O                     7.91322   0.64568   1.68143  M 
 H                     8.40011   0.08314   1.0504   M 
 H                    -4.08575  -0.50928  -4.6385   M 
 O                    -5.01481  -0.55653  -4.97236  M 
 H                    -5.00396  -0.19262  -5.87886  M 
 H                     6.44785  -1.37556  -2.15579  M 
 O                     6.86039  -1.81927  -1.40985  M 
 H                     6.13126  -2.09342  -0.82199  M 
 H                     4.71321  -0.71358   4.4479   M 
 O                     5.12212   0.0263    3.9685   M 
 H                     5.07008  -0.15099   3.00503  M 
 H                    -0.02022   3.39296   2.85683  M 
 O                    -0.65034   4.0503    3.21459  M 
 H                    -0.33983   4.32166   4.10006  M 
 H                     8.24704  -1.14711  -0.70621  M 
 O                     9.03454  -0.76496  -0.25916  M 
 H                     9.73464  -1.4284   -0.32961  M 
 H                     9.62641  -3.69436   2.18113  M 
 O                     9.32811  -3.51629   1.26306  M 
 H                     10.09201  -3.35858   0.69754  M 
 H                    -2.38717  -2.50819   3.89368  M 
 O                    -3.01006  -2.60842   3.16373  M 
 H                    -2.55621  -2.28607   2.34449  M 
 H                    -2.16591   0.74801  -6.27119  M 
 O                    -2.79688   1.49317  -6.31901  M 
 H                    -3.04866   1.68748  -5.39227  M 
 H                    -1.24485   3.8251   -5.53872  M 
 O                    -1.36854   3.77845  -6.51528  M 
 H                    -1.95634   3.01352  -6.64882  M 
 H                    -4.58208  -6.211    -1.06372  M 
 O                    -5.05609  -5.46198  -0.67431  M 
 H                    -5.82658  -5.2949   -1.25955  M 
 H                     2.67984  -5.76298  -1.43216  H 
 O                     1.85481  -6.28904  -1.34659  H 
 H                     1.13228  -5.60524  -1.26781  H 
 H                     3.29551  -4.25379  -5.58856  M 
 O                     4.25602  -4.24239  -5.85596  M 
 H                     4.3652   -3.51377  -6.47268  M 
 H                     7.47803   3.56716   2.0102   M 
 O                     7.39493   3.19906   1.12145  M 
 H                     6.46609   2.86397   1.07475  M 
 H                     6.6486   -3.7725    0.37864  M 
 O                     7.13917  -4.58418   0.1684   M 
 H                     8.02688  -4.41521   0.5402   M 
 H                    -7.48253  -4.41983  -2.39077  M 
 O                    -7.2497   -5.34569  -2.15559  M 
 H                    -7.87048  -5.6098   -1.4497   M 
 H                    -4.39488   6.88228   4.85714  M 
 O                    -3.50767   6.54652   4.62786  M 
 H                    -3.02318   6.35201   5.44468  M 
 H                     7.26817   3.6922    4.77763  M 
 O                     7.26628   3.28019   3.90377  M 
 H                     7.52291   2.34983   4.0512   M 
 H                    -5.79107   1.0174    6.94346  M 
 O                    -6.5587    0.47661   7.24205  M 
 H                    -6.28039  -0.44607   7.11874  M 
 H                    -0.45425  -4.83373  -2.83974  M 
 O                    -0.62877  -4.74988  -3.79441  M 
 H                    -1.21783  -5.46823  -4.05883  M 
 H                     6.72168   0.37885   4.3252   M 
 O                     7.69087   0.57361   4.27834  M 
 H                     7.90335   0.51832   3.31971  M 
 H                     4.80351  -6.62688  -3.78877  M 
 O                     4.12116  -6.78887  -4.47325  M 
 H                     4.26856  -6.12137  -5.15073  M 
 H                    -5.90915  -1.90768  -5.20687  M 
 O                    -6.52256  -2.67541  -5.30727  M 
 H                    -7.37734  -2.26102  -5.59366  M 
 H                    -7.65616   0.75286   6.02726  M 
 O                    -8.21995   1.07298   5.27815  M 
 H                    -8.83332   1.70354   5.65918  M 
 H                    -5.24253   5.81363   2.23022  M 
 O                    -5.4828    6.72154   1.95409  M 
 H                    -4.62722   7.19844   1.92887  M 
 H                     5.77061   1.63657  -4.02612  M 
 O                     6.01133   0.84766  -4.55877  M 
 H                     5.51693   0.92572  -5.37707  M 
 H                    -5.88662   6.50013   0.30538  M 
 O                    -5.91338   6.26153  -0.64483  M 
 H                    -5.02503   6.49751  -0.98654  M 
 H                    -0.24858  -7.54213  -3.27888  H 
 O                    -0.95705  -7.71772  -2.63337  H 
 H                    -0.49817  -7.81938  -1.789    H 
 H                    -2.51269  -1.47856   5.55293  M 
 O                    -1.8573   -2.20108   5.70266  M 
 H                    -1.02528  -1.7282    5.89391  M 
 H                     7.53886  -4.42574  -1.49515  M 
 O                     7.66003  -4.42016  -2.46848  M 
 H                     6.87957  -3.9584   -2.82036  M 
 H                    -8.81718  -2.94349  -3.22658  M 
 O                    -7.89549  -2.85569  -2.89132  M 
 H                    -7.35278  -2.67304  -3.67356  M 
 H                     8.83776  -3.2463   -2.86944  M 
 O                     9.46772  -2.52201  -3.07373  M 
 H                     8.96329  -1.69327  -2.98881  M 
 H                    -5.07228  -4.96511  -3.50626  M 
 O                    -5.04068  -4.00074  -3.38879  M 
 H                    -5.56208  -3.61869  -4.10568  M 
 H                    -3.67176   4.01308  -3.56905  M 
 O                    -3.38473   4.8729   -3.22094  M 
 H                    -3.67481   5.5617   -3.82022  M 
 H                    -0.26932   4.75066  -4.10267  M 
 O                    -0.92349   4.05965  -3.89529  M 
 H                    -1.70769   4.50739  -3.51871  M 
 H                    -1.92106  -3.96302   5.42285  M 
 O                    -2.21164  -4.82915   5.09638  M 
 H                    -3.14597  -4.69098   4.86137  M 
 H                    -2.44249   8.38579  -3.8521   M 
 O                    -2.64325   7.43195  -3.94428  M 
 H                    -2.44506   7.18335  -4.87406  M 
 H                    -3.00702   7.40229   3.14976  M 
 O                    -2.93676   7.58483   2.19773  M 
 H                    -2.33649   6.89197   1.85417  M 
 H                     4.81008   1.6879    4.16503  M 
 O                     4.65048   2.63994   3.98516  M 
 H                     5.52275   3.00084   3.7377   M 
 H                     7.89689  -1.59132   6.26491  M 
 O                     8.33779  -1.80045   5.41842  M 
 H                     8.29075  -0.96023   4.92094  M 
 H                     6.04225  -1.32822   7.77892  M 
 O                     6.7441   -0.80787   7.3756   M 
 H                     6.2819   -0.06404   6.92855  M 
 H                    -1.77031   5.61227  -6.53187  M 
 O                    -1.9085    6.55497  -6.35217  M 
 H                    -1.03959   6.98217  -6.45696  M 
 H                    -8.18584  -0.11215   3.97603  M 
 O                    -8.00075  -0.6596    3.19992  M 
 H                    -7.09464  -1.00113   3.30427  M 
 H                    -8.51857   0.16063   0.21918  M 
 O                    -8.55001   0.81089   0.94036  M 
 H                    -8.51919   0.27873   1.75364  M 
 H                     0.84672  -0.40411   5.92031  M 
 O                     0.01435  -0.47404   6.44408  M 
 H                    -0.49163   0.2933    6.12482  M 
 H                    -0.49516   7.042    -1.75257  M 
 O                    -0.45305   6.64325  -2.64489  M 
 H                    -1.30936   6.83269  -3.09037  M 
 H                     0.64687  -8.05412   0.82792  H 
 O                    -0.24591  -8.35356   0.54405  H 
 H                    -0.73123  -8.38079   1.40027  H 
 H                     2.01343   2.80543   5.20553  M 
 O                     2.02213   2.51001   4.27047  M 
 H                     2.96255   2.53286   4.01536  M 
 H                    -7.96809  -5.55778  -5.41087  M 
 O                    -7.07193  -5.41821  -5.75852  M 
 H                    -6.92231  -4.46433  -5.72137  M 
 H                     3.06167  -7.43659   1.10218  H 
 O                     2.14991  -7.11055   1.11379  H 
 H                     2.05252  -6.78158   0.17169  H 
 H                     3.28858   5.64301  -7.49968  M 
 O                     3.44455   4.6804   -7.60679  M 
 H                     2.61753   4.23102  -7.37336  M 
 H                    -0.5437    7.03834   0.41761  M 
 O                    -0.24159   7.7357   -0.18843  M 
 H                    -0.91932   8.42536  -0.14596  M 
 H                     4.43075   3.79842   5.16663  M 
 O                     4.34352   4.45748   5.89721  M 
 H                     5.22561   4.52855   6.27165  M 
 H                     7.64441   2.98307   6.75704  M 
 O                     7.11306   3.81866   6.66995  M 
 H                     7.59951   4.4885    7.14915  M 
 H                     4.1924   -7.9722   -0.95794  H 
 O                     4.66121  -7.43429  -0.27752  H 
 H                     5.09853  -6.76149  -0.83242  H 
 H                     6.7299   -5.92032  -2.60038  M 
 O                     5.96039  -6.51319  -2.53477  M 
 H                     6.2935   -7.42612  -2.45642  M 
 H                    -8.98622  -2.05316   3.06076  M 
 O                    -9.46799  -2.87736   2.83719  M 
 H                    -10.20755  -2.58365   2.27837  M 
 H                    -2.70966   8.80416   0.88527  M 
 O                    -2.57126   9.14715  -0.01328  M 
 H                    -3.3699    9.70316  -0.1908   M 
 H                     8.10483   0.84392   7.3354   M 
 O                     8.44276   1.53337   6.75354  M 
 H                     8.29387   1.19224   5.85462  M 
 H                    -2.37635   5.2758    7.59905  M 
 O                    -2.0981    5.4812    6.70765  M 
 H                    -2.28792   4.66561   6.1544   M 
 H                    -6.2881   -6.42294  -3.20179  M 
 O                    -5.61962  -6.6309   -3.88008  M 
 H                    -6.06162  -6.35913  -4.71368  M 
 H                     6.79664  -2.67552   2.72018  M 
 O                     6.91686  -2.42744   1.78472  M 
 H                     7.86319  -2.50749   1.59532  M 
 H                     2.29899   6.7518   -0.93467  M 
 O                     2.55243   7.5022   -0.35153  M 
 H                     1.70795   7.84162  -0.03035  M 
 H                    -4.18287  -7.34852  -2.74195  M 
 O                    -3.60496  -7.38823  -1.97058  M 
 H                    -2.70168  -7.49391  -2.31872  M 
 H                     0.8412    6.67301  -5.73048  M 
 O                     0.66464   7.53757  -6.16946  M 
 H                     0.6816    8.18222  -5.43215  M 
 H                    -8.28223  -1.63027  -1.61062  M 
 O                    -8.57335  -1.34895  -0.72934  M 
 H                    -8.34034  -2.12746  -0.17516  M 
 H                    -3.30416   7.12549  -2.2853   M 
 O                    -3.39982   6.96081  -1.33753  M 
 H                    -3.09881   7.77197  -0.87672  M 
 H                     2.831    -4.46605   2.398    M 
 O                     1.91713  -4.81367   2.41131  M 
 H                     1.9808   -5.70699   2.01354  M 
 H                    -8.84233  -0.80443  -4.98338  M 
 O                    -8.75348  -1.3942   -5.76812  M 
 H                    -8.47135  -0.80525  -6.49021  M 
 H                     7.52527  -0.03822  -3.91537  M 
 O                     8.17085  -0.05787  -3.1901   M 
 H                     8.84214   0.60565  -3.40283  M 
 H                     4.19164   6.73722  -0.19032  M 
 O                     4.90185   6.10134  -0.37329  M 
 H                     4.44496   5.25889  -0.59207  M 
 H                    -7.97069   0.13472  -3.18226  M 
 O                    -8.86878   0.14098  -3.57325  M 
 H                    -9.46995  -0.08239  -2.86133  M 
 H                     6.09689   3.8163   -3.3456   M 
 O                     5.62404   3.0352   -3.00372  M 
 H                     6.21451   2.62181  -2.32975  M 
 H                    -1.30802  -6.92873   0.24384  H 
 O                    -1.91277  -6.17797   0.05484  H 
 H                    -2.51373  -6.50944  -0.62837  H 
 H                    -3.94645  -7.73624   1.14159  M 
 O                    -4.16635  -7.46939   2.03704  M 
 H                    -3.95647  -6.50584   2.08599  M 
 H                    -2.85431  -5.026     1.27247  M 
 O                    -3.56535  -4.90295   1.92071  M 
 H                    -3.28508  -4.1738    2.51165  M 
 H                     5.27845  -6.06059   4.91042  M 
 O                     4.52171  -5.82806   4.369    M 
 H                     4.81641  -5.93463   3.44837  M 
 H                    -9.56775  -6.23963  -3.76165  M 
 O                    -9.58474  -5.79477  -4.63999  M 
 H                    -10.22605  -6.27466  -5.16447  M 
 H                     6.28858  -5.5817    1.29748  M 
 O                     5.77862  -6.16207   1.89897  M 
 H                     5.32515  -6.76452   1.29482  M 
 H                    -1.35134  -6.65954   2.69987  M 
 O                    -1.49221  -7.61976   2.76677  M 
 H                    -2.45257  -7.74447   2.76257  M 
 H                    -10.07967  -4.08494  -4.37772  M 
 O                    -10.2099  -3.15539  -4.12528  M 
 H                    -9.98073  -2.61716  -4.89514  M 
 H                     0.42667   7.94989  -3.37581  M 
 O                     0.7438    8.77867  -3.79171  M 
 H                     1.6452    8.92746  -3.43755  M 
 H                    -9.09559  -7.96723  -2.34953  M 
 O                    -9.68545  -7.21207  -2.36349  M 
 H                    -9.56661  -6.76304  -1.50704  M 
 H                     2.08037   0.78035   4.57174  M 
 O                     2.17791  -0.06274   5.0541   M 
 H                     2.3916   -0.75323   4.39123  M 
 H                    -6.57461   0.29487  -7.57266  M 
 O                    -7.53355   0.38075  -7.44429  M 
 H                    -7.68996   1.28734  -7.1771   M 
 H                     6.20647   3.82828  -7.34884  M 
 O                     5.61815   3.77707  -6.59552  M 
 H                     4.77043   4.22866  -6.89542  M 
 H                    -5.37383   10.33006   0.49721  M 
 O                    -4.88383   10.33749  -0.3359   M 
 H                    -5.46922   9.8426   -0.94251  M 
 H                    -0.8166   -1.17234  -5.72119  M 
 O                    -0.98448  -0.52874  -6.44372  M 
 H                    -0.20051   0.05236  -6.40321  M 
 H                     4.7289   -0.50268  -6.92942  M 
 O                     4.81377  -1.4322   -6.69181  M 
 H                     5.66082  -1.5239   -6.22054  M 
 H                     2.654    -9.31788  -2.16629  H 
 O                     3.58813  -8.99573  -2.3203   H 
 H                     3.54785  -8.41821  -3.09533  H 
 H                    -4.2546   -0.53867  -7.84833  M 
 O                    -4.7656    0.21919  -7.52544  M 
 H                    -4.08727   0.86746  -7.22736  M 
 H                     1.33461   3.90125   6.62045  M 
 O                     2.08244   3.31193   6.83959  M 
 H                     2.89439   3.8353    6.70699  M 
 H                    -11.33995  -2.62218   0.09215  M 
 O                    -10.92248  -1.97793   0.66416  M 
 H                    -10.19265  -1.59218   0.14821  M 
 H                    -7.41736   2.16536   7.59336  M 
 O                    -7.89323   3.00261   7.49545  M 
 H                    -8.01115   3.35594   8.37667  M 
 H                     6.21364  -9.00511  -0.99772  M 
 O                     6.29556  -9.14729  -1.94552  M 
 H                     5.39956  -9.36289  -2.24616  M 
 H                     6.58406   5.28148  -0.87432  M 
 O                     7.22469   4.61414  -1.14115  M 
 H                     7.41785   4.09622  -0.3331   M 
 H                    -5.35617  -2.71016   5.91867  M 
 O                    -5.37181  -1.93617   6.5236   M 
 H                    -4.74273  -2.17449   7.22652  M 
 H                     2.61028   1.67226   7.46036  M 
 O                     3.07958   0.82888   7.38898  M 
 H                     2.75951   0.42668   6.55416  M 
 H                    -2.69248  -2.67815   7.12528  M 
 O                    -3.17874  -2.7979    7.96953  M 
 H                    -2.55772  -2.45579   8.62901  M 
 H                     5.77529   2.22207   6.63951  M 
 O                     5.48956   1.3427    6.38545  M 
 H                     4.60553   1.19697   6.78274  M 
 H                     1.99565  -4.22633   4.2185   M 
 O                     2.47792  -4.14762   5.05412  M 
 H                     3.17984  -4.81858   4.98157  M 
 H                     10.42862  -2.67965  -1.74414  M 
 O                     10.927   -2.66955  -0.88172  M 
 H                     11.85557  -2.64658  -1.10628  M 
 H                     3.84823   8.28519  -3.01642  M 
 O                     3.16779   8.86499  -2.65247  M 
 H                     2.99589   8.53067  -1.75321  M 
 H                    -8.14902  -6.43      0.53326  M 
 O                    -8.79672  -6.0206   -0.0629   M 
 H                    -8.74553  -5.06606   0.18932  M 
 H                    -0.76964   9.65982  -3.41209  M 
 O                    -1.708     9.8269   -3.2017   M 
 H                    -1.77285   9.96361  -2.25404  M 
 H                     4.09868   4.00191  -3.81821  M 
 O                     3.54458   4.7874   -3.85571  M 
 H                     4.1047    5.56718  -3.66046  M 
 H                     5.14512   6.61624  -2.0648   M 
 O                     5.07323   6.80815  -3.02013  M 
 H                     5.85513   6.44442  -3.45522  M 
 H                    -0.39908   5.34803   6.02008  M 
 O                     0.32108   4.86371   5.59215  M 
 H                     1.01094   5.50269   5.29053  M 
 H                     3.18342   5.72008   5.0692   M 
 O                     2.41829   6.15159   4.66057  M 
 H                     2.36571   5.80397   3.75615  M 
 H                    -7.21266   9.00708  -0.29819  M 
 O                    -6.92326   8.76708  -1.1883   M 
 H                    -6.68848   7.82353  -1.14263  M 
 H                    -1.29073  -4.91701   3.70239  M 
 O                    -0.84697  -4.85033   2.82597  M 
 H                     0.07575  -5.09915   2.92833  M 
 H                     4.24405  -1.96363   6.30042  M 
 O                     4.24203  -2.13509   5.33439  M 
 H                     3.53088  -2.78858   5.17497  M 
 H                     7.12887  -6.03449   3.30319  M 
 O                     7.50582  -5.65388   4.10681  M 
 H                     7.02996  -4.81319   4.24256  M 
 H                     9.04676  -4.68068   4.01623  M 
 O                     9.67776  -3.95158   3.8667   M 
 H                     9.40963  -3.24016   4.46106  M 
 H                     3.01608   7.84075  -8.17494  M 
 O                     3.02239   7.3186   -7.37404  M 
 H                     2.15034   7.47531  -6.9368   M 
 H                    -0.58232  -1.11169   8.16403  M 
 O                    -0.78758  -1.73523   8.87478  M 
 H                    -0.07478  -2.38017   8.86086  M 
 H                     8.34305   4.51683  -2.33375  M 
 O                     9.01896   4.53005  -3.05966  M 
 H                     9.74318   5.05235  -2.71467  M 
 H                     6.35663   4.65846  -5.23853  M 
 O                     6.67919   5.07194  -4.41601  M 
 H                     7.62678   4.91782  -4.32822  M 
 H                     10.63144   2.15907  -4.20855  M 
 O                     9.89746   2.06046  -3.6041   M 
 H                     9.51426   2.95392  -3.45666  M 
 H                     3.16314  -2.21344   7.95964  M 
 O                     3.99418  -1.69998   7.95127  M 
 H                     3.71465  -0.77373   8.01111  M 
 H                    -2.43451  -2.0972   -8.70554  M 
 O                    -2.84318  -1.75256  -7.9125   M 
 H                    -2.1388   -1.28563  -7.41277  M 
 H                     5.08346   5.48803   1.45793  M 
 O                     4.8804    4.94656   2.23114  M 
 H                     3.91124   4.97152   2.33184  M 
 H                    -3.74781  -6.36094  -4.66321  M 
 O                    -2.9411   -5.84881  -4.7526   M 
 H                    -3.17117  -5.08332  -5.30296  M 
 H                    -6.58169   6.29166   4.85597  M 
 O                    -6.14884   7.11167   4.55462  M 
 H                    -6.01855   7.01001   3.58566  M 
 H                    -7.46623   4.28187   6.11524  M 
 O                    -7.20934   4.6964    5.28202  M 
 H                    -6.96264   3.95865   4.70105  M 
 H                    -7.29218   9.56904   2.32465  M 
 O                    -7.05255   9.94416   1.45255  M 
 H                    -7.52345   10.7757   1.38735  M 
 H                    -5.94023  -6.8803    1.89129  M 
 O                    -6.55646  -6.26129   1.47024  M 
 H                    -6.02261  -5.83016   0.76916  M 
 H                    -3.74404  -4.51645   7.76664  M 
 O                    -3.97639  -5.36955   7.35763  M 
 H                    -3.18512  -5.64881   6.88264  M 
 H                     9.54158   0.89544  -0.56527  M 
 O                     9.58746   1.84772  -0.76845  M 
 H                     9.89335   1.89842  -1.68011  M 
 H                    -7.94253  -4.11367   3.40309  M 
 O                    -7.01597  -4.37527   3.40838  M 
 H                    -6.88873  -5.02959   2.69211  M 
 H                     1.08058  -2.11106   6.98008  M 
 O                     1.58248  -2.84318   7.35443  M 
 H                     1.79669  -3.42851   6.61108  M 
 H                    -3.45003  -2.9812   -6.72376  M 
 O                    -3.86076  -3.597    -6.09892  M 
 H                    -4.80978  -3.46898  -6.18149  M 
 H                    -8.7193    8.47405   3.76014  M 
 O                    -7.93011   9.01043   3.84913  M 
 H                    -7.24932   8.42557   4.24372  M 
 H                     8.00748  -2.14046  -5.12231  M 
 O                     7.08273  -1.88918  -5.1464   M 
 H                     6.6182   -2.52297  -4.56692  M 
 H                    -4.86244  -4.76299   5.93356  M 
 O                    -4.91162  -4.19687   5.13841  M 
 H                    -5.67691  -4.458     4.60628  M 
 
 ITRead=  0  0  0  0  0  0  0  0  0  0  0  0  0  0  0  0  0  0  0  0
 ITRead=  0  0  0  0  0  0  0  0  0  0  0  0  0  0  0  0  0  0  0  0
 ITRead=  0  0  0  0  0  0  0  0  0  0  0  0  0  0  0  0  0  0  0  0
 ITRead=  0  0  0  0  0  0  0  0  0  0  0  0  0  0  0  0  0  0  0  0
 ITRead=  0  0  0  0  0  0  0  0  0  0  0  0  0  0  0  0  0  0  0  0
 ITRead=  0  0  0  0  0  0  0  0  0  0  0  0  0  0  0  0  0  0  0  0
 ITRead=  0  0  0  0  0  0  0  0  0  0  0  0  0  0  0  0  0  0  0  0
 ITRead=  0  0  0  0  0  0  0  0  0  0  0  0  0  0  0  0  0  0  0  0
 ITRead=  0  0  0  0  0  0  0  0  0  0  0  0  0  0  0  0  0  0  0  0
 ITRead=  0  0  0  0  0  0  0  0  0  0  0  0  0  0  0  0  0  0  0  0
 ITRead=  0  0  0  0  0  0  0  0  0  0  0  0  0  0  0  0  0  0  0  0
 ITRead=  0  0  0  0  0  0  0  0  0  0  0  0  0  0  0  0  0  0  0  0
 ITRead=  0  0  0  0  0  0  0  0  0  0  0  0  0  0  0  0  0  0  0  0
 ITRead=  0  0  0  0  0  0  0  0  0  0  0  0  0  0  0  0  0  0  0  0
 ITRead=  0  0  0  0  0  0  0  0  0  0  0  0  0  0  0  0  0  0  0  0
 ITRead=  0  0  0  0  0  0  0  0  0  0  0  0  0  0  0  0  0  0  0  0
 ITRead=  0  0  0  0  0  0  0  0  0  0  0  0  0  0  0  0  0  0  0  0
 ITRead=  0  0  0  0  0  0  0  0  0  0  0  0  0  0  0  0  0  0  0  0
 ITRead=  0  0  0  0  0  0  0  0  0  0  0  0  0  0  0  0  0  0  0  0
 ITRead=  0  0  0  0  0  0  0  0  0  0  0  0  0  0  0  0  0  0  0  0
 ITRead=  0  0  0  0  0  0  0  0  0  0  0  0  0  0  0  0  0  0  0  0
 ITRead=  0  0  0  0  0  0  0  0  0  0  0  0  0  0  0  0  0  0  0  0
 ITRead=  0  0  0  0  0  0  0  0  0  0  0  0  0  0  0  0  0  0  0  0
 ITRead=  0  0  0  0  0  0  0  0  0  0  0  0  0  0  0  0  0  0  0  0
 ITRead=  0  0  0  0  0  0  0  0  0  0  0  0  0  0  0  0  0  0  0  0
 ITRead=  0  0  0  0  0  0  0  0  0  0  0  0  0  0  0  0  0  0  0  0
 ITRead=  0  0  0  0  0  0  0  0  0  0  0  0  0  0  0  0  0  0  0  0
 ITRead=  0  0  0  0  0  0  0  0  0  0  0  0  0  0  0  0  0  0  0  0
 ITRead=  0  0  0  0  0  0  0  0  0  0  0  0  0  0  0  0  0  0  0  0
 ITRead=  0  0  0  0  0  0  0  0  0  0  0  0  0  0  0  0  0  0  0  0
 MicOpt= -1 -1 -1 -1 -1 -1 -1 -1 -1 -1 -1 -1 -1 -1 -1 -1 -1 -1 -1 -1
 MicOpt= -1 -1 -1 -1 -1 -1 -1 -1 -1 -1 -1 -1 -1 -1 -1 -1 -1 -1 -1 -1
 MicOpt= -1 -1 -1 -1 -1 -1 -1 -1 -1 -1 -1 -1 -1 -1 -1 -1 -1 -1 -1 -1
 MicOpt= -1 -1 -1 -1 -1 -1 -1 -1 -1 -1 -1 -1 -1 -1 -1 -1 -1 -1 -1 -1
 MicOpt= -1 -1 -1 -1 -1 -1 -1 -1 -1 -1 -1 -1 -1 -1 -1 -1 -1 -1 -1 -1
 MicOpt= -1 -1 -1 -1 -1 -1 -1 -1 -1 -1 -1 -1 -1 -1 -1 -1 -1 -1 -1 -1
 MicOpt= -1 -1 -1 -1 -1 -1 -1 -1 -1 -1 -1 -1 -1 -1 -1 -1 -1 -1 -1 -1
 MicOpt= -1 -1 -1 -1 -1 -1 -1 -1 -1 -1 -1 -1 -1 -1 -1 -1 -1 -1 -1 -1
 MicOpt= -1 -1 -1 -1 -1 -1 -1 -1 -1 -1 -1 -1 -1 -1 -1 -1 -1 -1 -1 -1
 MicOpt= -1 -1 -1 -1 -1 -1 -1 -1 -1 -1 -1 -1 -1 -1 -1 -1 -1 -1 -1 -1
 MicOpt= -1 -1 -1 -1 -1 -1 -1 -1 -1 -1 -1 -1 -1 -1 -1 -1 -1 -1 -1 -1
 MicOpt= -1 -1 -1 -1 -1 -1 -1 -1 -1 -1 -1 -1 -1 -1 -1 -1 -1 -1 -1 -1
 MicOpt= -1 -1 -1 -1 -1 -1 -1 -1 -1 -1 -1 -1 -1 -1 -1 -1 -1 -1 -1 -1
 MicOpt= -1 -1 -1 -1 -1 -1 -1 -1 -1 -1 -1 -1 -1 -1 -1 -1 -1 -1 -1 -1
 MicOpt= -1 -1 -1 -1 -1 -1 -1 -1 -1 -1 -1 -1 -1 -1 -1 -1 -1 -1 -1 -1
 MicOpt= -1 -1 -1 -1 -1 -1 -1 -1 -1 -1 -1 -1 -1 -1 -1 -1 -1 -1 -1 -1
 MicOpt= -1 -1 -1 -1 -1 -1 -1 -1 -1 -1 -1 -1 -1 -1 -1 -1 -1 -1 -1 -1
 MicOpt= -1 -1 -1 -1 -1 -1 -1 -1 -1 -1 -1 -1 -1 -1 -1 -1 -1 -1 -1 -1
 MicOpt= -1 -1 -1 -1 -1 -1 -1 -1 -1 -1 -1 -1 -1 -1 -1 -1 -1 -1 -1 -1
 MicOpt= -1 -1 -1 -1 -1 -1 -1 -1 -1 -1 -1 -1 -1 -1 -1 -1 -1 -1 -1 -1
 MicOpt= -1 -1 -1 -1 -1 -1 -1 -1 -1 -1 -1 -1 -1 -1 -1 -1 -1 -1 -1 -1
 MicOpt= -1 -1 -1 -1 -1 -1 -1 -1 -1 -1 -1 -1 -1 -1 -1 -1 -1 -1 -1 -1
 MicOpt= -1 -1 -1 -1 -1 -1 -1 -1 -1 -1 -1 -1 -1 -1 -1 -1 -1 -1 -1 -1
 MicOpt= -1 -1 -1 -1 -1 -1 -1 -1 -1 -1 -1 -1 -1 -1 -1 -1 -1 -1 -1 -1
 MicOpt= -1 -1 -1 -1 -1 -1 -1 -1 -1 -1 -1 -1 -1 -1 -1 -1 -1 -1 -1 -1
 MicOpt= -1 -1 -1 -1 -1 -1 -1 -1 -1 -1 -1 -1 -1 -1 -1 -1 -1 -1 -1 -1
 MicOpt= -1 -1 -1 -1 -1 -1 -1 -1 -1 -1 -1 -1 -1 -1 -1 -1 -1 -1 -1 -1
 MicOpt= -1 -1 -1 -1 -1 -1 -1 -1 -1 -1 -1 -1 -1 -1 -1 -1 -1 -1 -1 -1
 MicOpt= -1 -1 -1 -1 -1 -1 -1 -1 -1 -1 -1 -1 -1 -1 -1 -1 -1 -1 -1 -1
 MicOpt= -1 -1 -1 -1 -1 -1 -1 -1 -1 -1 -1 -1 -1 -1 -1 -1 -1 -1 -1 -1
 NAtoms=    600 NQM=      600 NQMF=       0 NMMI=      0 NMMIF=      0
                NMic=       0 NMicF=      0.
                    Isotopes and Nuclear Properties:
 (Nuclear quadrupole moments (NQMom) in fm**2, nuclear magnetic moments (NMagM)
  in nuclear magnetons)

  Atom         1           2           3           4           5           6           7           8           9          10
 IAtWgt=           1          16           1           1          16           1           1          16           1           1
 AtmWgt=   1.0078250  15.9949146   1.0078250   1.0078250  15.9949146   1.0078250   1.0078250  15.9949146   1.0078250   1.0078250
 NucSpn=           1           0           1           1           0           1           1           0           1           1
 AtZEff=  -0.0000000  -0.0000000  -0.0000000  -0.0000000  -0.0000000  -0.0000000  -0.0000000  -0.0000000  -0.0000000  -0.0000000
 NQMom=    0.0000000   0.0000000   0.0000000   0.0000000   0.0000000   0.0000000   0.0000000   0.0000000   0.0000000   0.0000000
 NMagM=    2.7928460   0.0000000   2.7928460   2.7928460   0.0000000   2.7928460   2.7928460   0.0000000   2.7928460   2.7928460
 AtZNuc=   1.0000000   8.0000000   1.0000000   1.0000000   8.0000000   1.0000000   1.0000000   8.0000000   1.0000000   1.0000000

  Atom        11          12          13          14          15          16          17          18          19          20
 IAtWgt=          16           1           1          16           1           1          16           1           1          16
 AtmWgt=  15.9949146   1.0078250   1.0078250  15.9949146   1.0078250   1.0078250  15.9949146   1.0078250   1.0078250  15.9949146
 NucSpn=           0           1           1           0           1           1           0           1           1           0
 AtZEff=  -0.0000000  -0.0000000  -0.0000000  -0.0000000  -0.0000000  -0.0000000  -0.0000000  -0.0000000  -0.0000000  -0.0000000
 NQMom=    0.0000000   0.0000000   0.0000000   0.0000000   0.0000000   0.0000000   0.0000000   0.0000000   0.0000000   0.0000000
 NMagM=    0.0000000   2.7928460   2.7928460   0.0000000   2.7928460   2.7928460   0.0000000   2.7928460   2.7928460   0.0000000
 AtZNuc=   8.0000000   1.0000000   1.0000000   8.0000000   1.0000000   1.0000000   8.0000000   1.0000000   1.0000000   8.0000000

  Atom        21          22          23          24          25          26          27          28          29          30
 IAtWgt=           1           1          16           1           1          16           1           1          16           1
 AtmWgt=   1.0078250   1.0078250  15.9949146   1.0078250   1.0078250  15.9949146   1.0078250   1.0078250  15.9949146   1.0078250
 NucSpn=           1           1           0           1           1           0           1           1           0           1
 AtZEff=  -0.0000000  -0.0000000  -0.0000000  -0.0000000  -0.0000000  -0.0000000  -0.0000000  -0.0000000  -0.0000000  -0.0000000
 NQMom=    0.0000000   0.0000000   0.0000000   0.0000000   0.0000000   0.0000000   0.0000000   0.0000000   0.0000000   0.0000000
 NMagM=    2.7928460   2.7928460   0.0000000   2.7928460   2.7928460   0.0000000   2.7928460   2.7928460   0.0000000   2.7928460
 AtZNuc=   1.0000000   1.0000000   8.0000000   1.0000000   1.0000000   8.0000000   1.0000000   1.0000000   8.0000000   1.0000000

  Atom        31          32          33          34          35          36          37          38          39          40
 IAtWgt=           1          16           1           1          16           1           1          16           1           1
 AtmWgt=   1.0078250  15.9949146   1.0078250   1.0078250  15.9949146   1.0078250   1.0078250  15.9949146   1.0078250   1.0078250
 NucSpn=           1           0           1           1           0           1           1           0           1           1
 AtZEff=  -0.0000000  -0.0000000  -0.0000000  -0.0000000  -0.0000000  -0.0000000  -0.0000000  -0.0000000  -0.0000000  -0.0000000
 NQMom=    0.0000000   0.0000000   0.0000000   0.0000000   0.0000000   0.0000000   0.0000000   0.0000000   0.0000000   0.0000000
 NMagM=    2.7928460   0.0000000   2.7928460   2.7928460   0.0000000   2.7928460   2.7928460   0.0000000   2.7928460   2.7928460
 AtZNuc=   1.0000000   8.0000000   1.0000000   1.0000000   8.0000000   1.0000000   1.0000000   8.0000000   1.0000000   1.0000000

  Atom        41          42          43          44          45          46          47          48          49          50
 IAtWgt=          16           1           1          16           1           1          16           1           1          16
 AtmWgt=  15.9949146   1.0078250   1.0078250  15.9949146   1.0078250   1.0078250  15.9949146   1.0078250   1.0078250  15.9949146
 NucSpn=           0           1           1           0           1           1           0           1           1           0
 AtZEff=  -0.0000000  -0.0000000  -0.0000000  -0.0000000  -0.0000000  -0.0000000  -0.0000000  -0.0000000  -0.0000000  -0.0000000
 NQMom=    0.0000000   0.0000000   0.0000000   0.0000000   0.0000000   0.0000000   0.0000000   0.0000000   0.0000000   0.0000000
 NMagM=    0.0000000   2.7928460   2.7928460   0.0000000   2.7928460   2.7928460   0.0000000   2.7928460   2.7928460   0.0000000
 AtZNuc=   8.0000000   1.0000000   1.0000000   8.0000000   1.0000000   1.0000000   8.0000000   1.0000000   1.0000000   8.0000000

  Atom        51          52          53          54          55          56          57          58          59          60
 IAtWgt=           1           1          16           1           1          16           1           1          16           1
 AtmWgt=   1.0078250   1.0078250  15.9949146   1.0078250   1.0078250  15.9949146   1.0078250   1.0078250  15.9949146   1.0078250
 NucSpn=           1           1           0           1           1           0           1           1           0           1
 AtZEff=  -0.0000000  -0.0000000  -0.0000000  -0.0000000  -0.0000000  -0.0000000  -0.0000000  -0.0000000  -0.0000000  -0.0000000
 NQMom=    0.0000000   0.0000000   0.0000000   0.0000000   0.0000000   0.0000000   0.0000000   0.0000000   0.0000000   0.0000000
 NMagM=    2.7928460   2.7928460   0.0000000   2.7928460   2.7928460   0.0000000   2.7928460   2.7928460   0.0000000   2.7928460
 AtZNuc=   1.0000000   1.0000000   8.0000000   1.0000000   1.0000000   8.0000000   1.0000000   1.0000000   8.0000000   1.0000000

  Atom        61          62          63          64          65          66          67          68          69          70
 IAtWgt=           1          16           1           1          16           1           1          16           1           1
 AtmWgt=   1.0078250  15.9949146   1.0078250   1.0078250  15.9949146   1.0078250   1.0078250  15.9949146   1.0078250   1.0078250
 NucSpn=           1           0           1           1           0           1           1           0           1           1
 AtZEff=  -0.0000000  -0.0000000  -0.0000000  -0.0000000  -0.0000000  -0.0000000  -0.0000000  -0.0000000  -0.0000000  -0.0000000
 NQMom=    0.0000000   0.0000000   0.0000000   0.0000000   0.0000000   0.0000000   0.0000000   0.0000000   0.0000000   0.0000000
 NMagM=    2.7928460   0.0000000   2.7928460   2.7928460   0.0000000   2.7928460   2.7928460   0.0000000   2.7928460   2.7928460
 AtZNuc=   1.0000000   8.0000000   1.0000000   1.0000000   8.0000000   1.0000000   1.0000000   8.0000000   1.0000000   1.0000000

  Atom        71          72          73          74          75          76          77          78          79          80
 IAtWgt=          16           1           1          16           1           1          16           1           1          16
 AtmWgt=  15.9949146   1.0078250   1.0078250  15.9949146   1.0078250   1.0078250  15.9949146   1.0078250   1.0078250  15.9949146
 NucSpn=           0           1           1           0           1           1           0           1           1           0
 AtZEff=  -0.0000000  -0.0000000  -0.0000000  -0.0000000  -0.0000000  -0.0000000  -0.0000000  -0.0000000  -0.0000000  -0.0000000
 NQMom=    0.0000000   0.0000000   0.0000000   0.0000000   0.0000000   0.0000000   0.0000000   0.0000000   0.0000000   0.0000000
 NMagM=    0.0000000   2.7928460   2.7928460   0.0000000   2.7928460   2.7928460   0.0000000   2.7928460   2.7928460   0.0000000
 AtZNuc=   8.0000000   1.0000000   1.0000000   8.0000000   1.0000000   1.0000000   8.0000000   1.0000000   1.0000000   8.0000000

  Atom        81          82          83          84          85          86          87          88          89          90
 IAtWgt=           1           1          16           1           1          16           1           1          16           1
 AtmWgt=   1.0078250   1.0078250  15.9949146   1.0078250   1.0078250  15.9949146   1.0078250   1.0078250  15.9949146   1.0078250
 NucSpn=           1           1           0           1           1           0           1           1           0           1
 AtZEff=  -0.0000000  -0.0000000  -0.0000000  -0.0000000  -0.0000000  -0.0000000  -0.0000000  -0.0000000  -0.0000000  -0.0000000
 NQMom=    0.0000000   0.0000000   0.0000000   0.0000000   0.0000000   0.0000000   0.0000000   0.0000000   0.0000000   0.0000000
 NMagM=    2.7928460   2.7928460   0.0000000   2.7928460   2.7928460   0.0000000   2.7928460   2.7928460   0.0000000   2.7928460
 AtZNuc=   1.0000000   1.0000000   8.0000000   1.0000000   1.0000000   8.0000000   1.0000000   1.0000000   8.0000000   1.0000000

  Atom        91          92          93          94          95          96          97          98          99         100
 IAtWgt=           1          16           1           1          16           1           1          16           1           1
 AtmWgt=   1.0078250  15.9949146   1.0078250   1.0078250  15.9949146   1.0078250   1.0078250  15.9949146   1.0078250   1.0078250
 NucSpn=           1           0           1           1           0           1           1           0           1           1
 AtZEff=  -0.0000000  -0.0000000  -0.0000000  -0.0000000  -0.0000000  -0.0000000  -0.0000000  -0.0000000  -0.0000000  -0.0000000
 NQMom=    0.0000000   0.0000000   0.0000000   0.0000000   0.0000000   0.0000000   0.0000000   0.0000000   0.0000000   0.0000000
 NMagM=    2.7928460   0.0000000   2.7928460   2.7928460   0.0000000   2.7928460   2.7928460   0.0000000   2.7928460   2.7928460
 AtZNuc=   1.0000000   8.0000000   1.0000000   1.0000000   8.0000000   1.0000000   1.0000000   8.0000000   1.0000000   1.0000000

  Atom       101         102         103         104         105         106         107         108         109         110
 IAtWgt=          16           1           1          16           1           1          16           1           1          16
 AtmWgt=  15.9949146   1.0078250   1.0078250  15.9949146   1.0078250   1.0078250  15.9949146   1.0078250   1.0078250  15.9949146
 NucSpn=           0           1           1           0           1           1           0           1           1           0
 AtZEff=  -0.0000000  -0.0000000  -0.0000000  -0.0000000  -0.0000000  -0.0000000  -0.0000000  -0.0000000  -0.0000000  -0.0000000
 NQMom=    0.0000000   0.0000000   0.0000000   0.0000000   0.0000000   0.0000000   0.0000000   0.0000000   0.0000000   0.0000000
 NMagM=    0.0000000   2.7928460   2.7928460   0.0000000   2.7928460   2.7928460   0.0000000   2.7928460   2.7928460   0.0000000
 AtZNuc=   8.0000000   1.0000000   1.0000000   8.0000000   1.0000000   1.0000000   8.0000000   1.0000000   1.0000000   8.0000000

  Atom       111         112         113         114         115         116         117         118         119         120
 IAtWgt=           1           1          16           1           1          16           1           1          16           1
 AtmWgt=   1.0078250   1.0078250  15.9949146   1.0078250   1.0078250  15.9949146   1.0078250   1.0078250  15.9949146   1.0078250
 NucSpn=           1           1           0           1           1           0           1           1           0           1
 AtZEff=  -0.0000000  -0.0000000  -0.0000000  -0.0000000  -0.0000000  -0.0000000  -0.0000000  -0.0000000  -0.0000000  -0.0000000
 NQMom=    0.0000000   0.0000000   0.0000000   0.0000000   0.0000000   0.0000000   0.0000000   0.0000000   0.0000000   0.0000000
 NMagM=    2.7928460   2.7928460   0.0000000   2.7928460   2.7928460   0.0000000   2.7928460   2.7928460   0.0000000   2.7928460
 AtZNuc=   1.0000000   1.0000000   8.0000000   1.0000000   1.0000000   8.0000000   1.0000000   1.0000000   8.0000000   1.0000000

  Atom       121         122         123         124         125         126         127         128         129         130
 IAtWgt=           1          16           1           1          16           1           1          16           1           1
 AtmWgt=   1.0078250  15.9949146   1.0078250   1.0078250  15.9949146   1.0078250   1.0078250  15.9949146   1.0078250   1.0078250
 NucSpn=           1           0           1           1           0           1           1           0           1           1
 AtZEff=  -0.0000000  -0.0000000  -0.0000000  -0.0000000  -0.0000000  -0.0000000  -0.0000000  -0.0000000  -0.0000000  -0.0000000
 NQMom=    0.0000000   0.0000000   0.0000000   0.0000000   0.0000000   0.0000000   0.0000000   0.0000000   0.0000000   0.0000000
 NMagM=    2.7928460   0.0000000   2.7928460   2.7928460   0.0000000   2.7928460   2.7928460   0.0000000   2.7928460   2.7928460
 AtZNuc=   1.0000000   8.0000000   1.0000000   1.0000000   8.0000000   1.0000000   1.0000000   8.0000000   1.0000000   1.0000000

  Atom       131         132         133         134         135         136         137         138         139         140
 IAtWgt=          16           1           1          16           1           1          16           1           1          16
 AtmWgt=  15.9949146   1.0078250   1.0078250  15.9949146   1.0078250   1.0078250  15.9949146   1.0078250   1.0078250  15.9949146
 NucSpn=           0           1           1           0           1           1           0           1           1           0
 AtZEff=  -0.0000000  -0.0000000  -0.0000000  -0.0000000  -0.0000000  -0.0000000  -0.0000000  -0.0000000  -0.0000000  -0.0000000
 NQMom=    0.0000000   0.0000000   0.0000000   0.0000000   0.0000000   0.0000000   0.0000000   0.0000000   0.0000000   0.0000000
 NMagM=    0.0000000   2.7928460   2.7928460   0.0000000   2.7928460   2.7928460   0.0000000   2.7928460   2.7928460   0.0000000
 AtZNuc=   8.0000000   1.0000000   1.0000000   8.0000000   1.0000000   1.0000000   8.0000000   1.0000000   1.0000000   8.0000000

  Atom       141         142         143         144         145         146         147         148         149         150
 IAtWgt=           1           1          16           1           1          16           1           1          16           1
 AtmWgt=   1.0078250   1.0078250  15.9949146   1.0078250   1.0078250  15.9949146   1.0078250   1.0078250  15.9949146   1.0078250
 NucSpn=           1           1           0           1           1           0           1           1           0           1
 AtZEff=  -0.0000000  -0.0000000  -0.0000000  -0.0000000  -0.0000000  -0.0000000  -0.0000000  -0.0000000  -0.0000000  -0.0000000
 NQMom=    0.0000000   0.0000000   0.0000000   0.0000000   0.0000000   0.0000000   0.0000000   0.0000000   0.0000000   0.0000000
 NMagM=    2.7928460   2.7928460   0.0000000   2.7928460   2.7928460   0.0000000   2.7928460   2.7928460   0.0000000   2.7928460
 AtZNuc=   1.0000000   1.0000000   8.0000000   1.0000000   1.0000000   8.0000000   1.0000000   1.0000000   8.0000000   1.0000000

  Atom       151         152         153         154         155         156         157         158         159         160
 IAtWgt=           1          16           1           1          16           1           1          16           1           1
 AtmWgt=   1.0078250  15.9949146   1.0078250   1.0078250  15.9949146   1.0078250   1.0078250  15.9949146   1.0078250   1.0078250
 NucSpn=           1           0           1           1           0           1           1           0           1           1
 AtZEff=  -0.0000000  -0.0000000  -0.0000000  -0.0000000  -0.0000000  -0.0000000  -0.0000000  -0.0000000  -0.0000000  -0.0000000
 NQMom=    0.0000000   0.0000000   0.0000000   0.0000000   0.0000000   0.0000000   0.0000000   0.0000000   0.0000000   0.0000000
 NMagM=    2.7928460   0.0000000   2.7928460   2.7928460   0.0000000   2.7928460   2.7928460   0.0000000   2.7928460   2.7928460
 AtZNuc=   1.0000000   8.0000000   1.0000000   1.0000000   8.0000000   1.0000000   1.0000000   8.0000000   1.0000000   1.0000000

  Atom       161         162         163         164         165         166         167         168         169         170
 IAtWgt=          16           1           1          16           1           1          16           1           1          16
 AtmWgt=  15.9949146   1.0078250   1.0078250  15.9949146   1.0078250   1.0078250  15.9949146   1.0078250   1.0078250  15.9949146
 NucSpn=           0           1           1           0           1           1           0           1           1           0
 AtZEff=  -0.0000000  -0.0000000  -0.0000000  -0.0000000  -0.0000000  -0.0000000  -0.0000000  -0.0000000  -0.0000000  -0.0000000
 NQMom=    0.0000000   0.0000000   0.0000000   0.0000000   0.0000000   0.0000000   0.0000000   0.0000000   0.0000000   0.0000000
 NMagM=    0.0000000   2.7928460   2.7928460   0.0000000   2.7928460   2.7928460   0.0000000   2.7928460   2.7928460   0.0000000
 AtZNuc=   8.0000000   1.0000000   1.0000000   8.0000000   1.0000000   1.0000000   8.0000000   1.0000000   1.0000000   8.0000000

  Atom       171         172         173         174         175         176         177         178         179         180
 IAtWgt=           1           1          16           1           1          16           1           1          16           1
 AtmWgt=   1.0078250   1.0078250  15.9949146   1.0078250   1.0078250  15.9949146   1.0078250   1.0078250  15.9949146   1.0078250
 NucSpn=           1           1           0           1           1           0           1           1           0           1
 AtZEff=  -0.0000000  -0.0000000  -0.0000000  -0.0000000  -0.0000000  -0.0000000  -0.0000000  -0.0000000  -0.0000000  -0.0000000
 NQMom=    0.0000000   0.0000000   0.0000000   0.0000000   0.0000000   0.0000000   0.0000000   0.0000000   0.0000000   0.0000000
 NMagM=    2.7928460   2.7928460   0.0000000   2.7928460   2.7928460   0.0000000   2.7928460   2.7928460   0.0000000   2.7928460
 AtZNuc=   1.0000000   1.0000000   8.0000000   1.0000000   1.0000000   8.0000000   1.0000000   1.0000000   8.0000000   1.0000000

  Atom       181         182         183         184         185         186         187         188         189         190
 IAtWgt=           1          16           1           1          16           1           1          16           1           1
 AtmWgt=   1.0078250  15.9949146   1.0078250   1.0078250  15.9949146   1.0078250   1.0078250  15.9949146   1.0078250   1.0078250
 NucSpn=           1           0           1           1           0           1           1           0           1           1
 AtZEff=  -0.0000000  -0.0000000  -0.0000000  -0.0000000  -0.0000000  -0.0000000  -0.0000000  -0.0000000  -0.0000000  -0.0000000
 NQMom=    0.0000000   0.0000000   0.0000000   0.0000000   0.0000000   0.0000000   0.0000000   0.0000000   0.0000000   0.0000000
 NMagM=    2.7928460   0.0000000   2.7928460   2.7928460   0.0000000   2.7928460   2.7928460   0.0000000   2.7928460   2.7928460
 AtZNuc=   1.0000000   8.0000000   1.0000000   1.0000000   8.0000000   1.0000000   1.0000000   8.0000000   1.0000000   1.0000000

  Atom       191         192         193         194         195         196         197         198         199         200
 IAtWgt=          16           1           1          16           1           1          16           1           1          16
 AtmWgt=  15.9949146   1.0078250   1.0078250  15.9949146   1.0078250   1.0078250  15.9949146   1.0078250   1.0078250  15.9949146
 NucSpn=           0           1           1           0           1           1           0           1           1           0
 AtZEff=  -0.0000000  -0.0000000  -0.0000000  -0.0000000  -0.0000000  -0.0000000  -0.0000000  -0.0000000  -0.0000000  -0.0000000
 NQMom=    0.0000000   0.0000000   0.0000000   0.0000000   0.0000000   0.0000000   0.0000000   0.0000000   0.0000000   0.0000000
 NMagM=    0.0000000   2.7928460   2.7928460   0.0000000   2.7928460   2.7928460   0.0000000   2.7928460   2.7928460   0.0000000
 AtZNuc=   8.0000000   1.0000000   1.0000000   8.0000000   1.0000000   1.0000000   8.0000000   1.0000000   1.0000000   8.0000000

  Atom       201         202         203         204         205         206         207         208         209         210
 IAtWgt=           1           1          16           1           1          16           1           1          16           1
 AtmWgt=   1.0078250   1.0078250  15.9949146   1.0078250   1.0078250  15.9949146   1.0078250   1.0078250  15.9949146   1.0078250
 NucSpn=           1           1           0           1           1           0           1           1           0           1
 AtZEff=  -0.0000000  -0.0000000  -0.0000000  -0.0000000  -0.0000000  -0.0000000  -0.0000000  -0.0000000  -0.0000000  -0.0000000
 NQMom=    0.0000000   0.0000000   0.0000000   0.0000000   0.0000000   0.0000000   0.0000000   0.0000000   0.0000000   0.0000000
 NMagM=    2.7928460   2.7928460   0.0000000   2.7928460   2.7928460   0.0000000   2.7928460   2.7928460   0.0000000   2.7928460
 AtZNuc=   1.0000000   1.0000000   8.0000000   1.0000000   1.0000000   8.0000000   1.0000000   1.0000000   8.0000000   1.0000000

  Atom       211         212         213         214         215         216         217         218         219         220
 IAtWgt=           1          16           1           1          16           1           1          16           1           1
 AtmWgt=   1.0078250  15.9949146   1.0078250   1.0078250  15.9949146   1.0078250   1.0078250  15.9949146   1.0078250   1.0078250
 NucSpn=           1           0           1           1           0           1           1           0           1           1
 AtZEff=  -0.0000000  -0.0000000  -0.0000000  -0.0000000  -0.0000000  -0.0000000  -0.0000000  -0.0000000  -0.0000000  -0.0000000
 NQMom=    0.0000000   0.0000000   0.0000000   0.0000000   0.0000000   0.0000000   0.0000000   0.0000000   0.0000000   0.0000000
 NMagM=    2.7928460   0.0000000   2.7928460   2.7928460   0.0000000   2.7928460   2.7928460   0.0000000   2.7928460   2.7928460
 AtZNuc=   1.0000000   8.0000000   1.0000000   1.0000000   8.0000000   1.0000000   1.0000000   8.0000000   1.0000000   1.0000000

  Atom       221         222         223         224         225         226         227         228         229         230
 IAtWgt=          16           1           1          16           1           1          16           1           1          16
 AtmWgt=  15.9949146   1.0078250   1.0078250  15.9949146   1.0078250   1.0078250  15.9949146   1.0078250   1.0078250  15.9949146
 NucSpn=           0           1           1           0           1           1           0           1           1           0
 AtZEff=  -0.0000000  -0.0000000  -0.0000000  -0.0000000  -0.0000000  -0.0000000  -0.0000000  -0.0000000  -0.0000000  -0.0000000
 NQMom=    0.0000000   0.0000000   0.0000000   0.0000000   0.0000000   0.0000000   0.0000000   0.0000000   0.0000000   0.0000000
 NMagM=    0.0000000   2.7928460   2.7928460   0.0000000   2.7928460   2.7928460   0.0000000   2.7928460   2.7928460   0.0000000
 AtZNuc=   8.0000000   1.0000000   1.0000000   8.0000000   1.0000000   1.0000000   8.0000000   1.0000000   1.0000000   8.0000000

  Atom       231         232         233         234         235         236         237         238         239         240
 IAtWgt=           1           1          16           1           1          16           1           1          16           1
 AtmWgt=   1.0078250   1.0078250  15.9949146   1.0078250   1.0078250  15.9949146   1.0078250   1.0078250  15.9949146   1.0078250
 NucSpn=           1           1           0           1           1           0           1           1           0           1
 AtZEff=  -0.0000000  -0.0000000  -0.0000000  -0.0000000  -0.0000000  -0.0000000  -0.0000000  -0.0000000  -0.0000000  -0.0000000
 NQMom=    0.0000000   0.0000000   0.0000000   0.0000000   0.0000000   0.0000000   0.0000000   0.0000000   0.0000000   0.0000000
 NMagM=    2.7928460   2.7928460   0.0000000   2.7928460   2.7928460   0.0000000   2.7928460   2.7928460   0.0000000   2.7928460
 AtZNuc=   1.0000000   1.0000000   8.0000000   1.0000000   1.0000000   8.0000000   1.0000000   1.0000000   8.0000000   1.0000000

  Atom       241         242         243         244         245         246         247         248         249         250
 IAtWgt=           1          16           1           1          16           1           1          16           1           1
 AtmWgt=   1.0078250  15.9949146   1.0078250   1.0078250  15.9949146   1.0078250   1.0078250  15.9949146   1.0078250   1.0078250
 NucSpn=           1           0           1           1           0           1           1           0           1           1
 AtZEff=  -0.0000000  -0.0000000  -0.0000000  -0.0000000  -0.0000000  -0.0000000  -0.0000000  -0.0000000  -0.0000000  -0.0000000
 NQMom=    0.0000000   0.0000000   0.0000000   0.0000000   0.0000000   0.0000000   0.0000000   0.0000000   0.0000000   0.0000000
 NMagM=    2.7928460   0.0000000   2.7928460   2.7928460   0.0000000   2.7928460   2.7928460   0.0000000   2.7928460   2.7928460
 AtZNuc=   1.0000000   8.0000000   1.0000000   1.0000000   8.0000000   1.0000000   1.0000000   8.0000000   1.0000000   1.0000000

  Atom       251         252         253         254         255         256         257         258         259         260
 IAtWgt=          16           1           1          16           1           1          16           1           1          16
 AtmWgt=  15.9949146   1.0078250   1.0078250  15.9949146   1.0078250   1.0078250  15.9949146   1.0078250   1.0078250  15.9949146
 NucSpn=           0           1           1           0           1           1           0           1           1           0
 AtZEff=  -0.0000000  -0.0000000  -0.0000000  -0.0000000  -0.0000000  -0.0000000  -0.0000000  -0.0000000  -0.0000000  -0.0000000
 NQMom=    0.0000000   0.0000000   0.0000000   0.0000000   0.0000000   0.0000000   0.0000000   0.0000000   0.0000000   0.0000000
 NMagM=    0.0000000   2.7928460   2.7928460   0.0000000   2.7928460   2.7928460   0.0000000   2.7928460   2.7928460   0.0000000
 AtZNuc=   8.0000000   1.0000000   1.0000000   8.0000000   1.0000000   1.0000000   8.0000000   1.0000000   1.0000000   8.0000000

  Atom       261         262         263         264         265         266         267         268         269         270
 IAtWgt=           1           1          16           1           1          16           1           1          16           1
 AtmWgt=   1.0078250   1.0078250  15.9949146   1.0078250   1.0078250  15.9949146   1.0078250   1.0078250  15.9949146   1.0078250
 NucSpn=           1           1           0           1           1           0           1           1           0           1
 AtZEff=  -0.0000000  -0.0000000  -0.0000000  -0.0000000  -0.0000000  -0.0000000  -0.0000000  -0.0000000  -0.0000000  -0.0000000
 NQMom=    0.0000000   0.0000000   0.0000000   0.0000000   0.0000000   0.0000000   0.0000000   0.0000000   0.0000000   0.0000000
 NMagM=    2.7928460   2.7928460   0.0000000   2.7928460   2.7928460   0.0000000   2.7928460   2.7928460   0.0000000   2.7928460
 AtZNuc=   1.0000000   1.0000000   8.0000000   1.0000000   1.0000000   8.0000000   1.0000000   1.0000000   8.0000000   1.0000000

  Atom       271         272         273         274         275         276         277         278         279         280
 IAtWgt=           1          16           1           1          16           1           1          16           1           1
 AtmWgt=   1.0078250  15.9949146   1.0078250   1.0078250  15.9949146   1.0078250   1.0078250  15.9949146   1.0078250   1.0078250
 NucSpn=           1           0           1           1           0           1           1           0           1           1
 AtZEff=  -0.0000000  -0.0000000  -0.0000000  -0.0000000  -0.0000000  -0.0000000  -0.0000000  -0.0000000  -0.0000000  -0.0000000
 NQMom=    0.0000000   0.0000000   0.0000000   0.0000000   0.0000000   0.0000000   0.0000000   0.0000000   0.0000000   0.0000000
 NMagM=    2.7928460   0.0000000   2.7928460   2.7928460   0.0000000   2.7928460   2.7928460   0.0000000   2.7928460   2.7928460
 AtZNuc=   1.0000000   8.0000000   1.0000000   1.0000000   8.0000000   1.0000000   1.0000000   8.0000000   1.0000000   1.0000000

  Atom       281         282         283         284         285         286         287         288         289         290
 IAtWgt=          16           1           1          16           1           1          16           1           1          16
 AtmWgt=  15.9949146   1.0078250   1.0078250  15.9949146   1.0078250   1.0078250  15.9949146   1.0078250   1.0078250  15.9949146
 NucSpn=           0           1           1           0           1           1           0           1           1           0
 AtZEff=  -0.0000000  -0.0000000  -0.0000000  -0.0000000  -0.0000000  -0.0000000  -0.0000000  -0.0000000  -0.0000000  -0.0000000
 NQMom=    0.0000000   0.0000000   0.0000000   0.0000000   0.0000000   0.0000000   0.0000000   0.0000000   0.0000000   0.0000000
 NMagM=    0.0000000   2.7928460   2.7928460   0.0000000   2.7928460   2.7928460   0.0000000   2.7928460   2.7928460   0.0000000
 AtZNuc=   8.0000000   1.0000000   1.0000000   8.0000000   1.0000000   1.0000000   8.0000000   1.0000000   1.0000000   8.0000000

  Atom       291         292         293         294         295         296         297         298         299         300
 IAtWgt=           1           1          16           1           1          16           1           1          16           1
 AtmWgt=   1.0078250   1.0078250  15.9949146   1.0078250   1.0078250  15.9949146   1.0078250   1.0078250  15.9949146   1.0078250
 NucSpn=           1           1           0           1           1           0           1           1           0           1
 AtZEff=  -0.0000000  -0.0000000  -0.0000000  -0.0000000  -0.0000000  -0.0000000  -0.0000000  -0.0000000  -0.0000000  -0.0000000
 NQMom=    0.0000000   0.0000000   0.0000000   0.0000000   0.0000000   0.0000000   0.0000000   0.0000000   0.0000000   0.0000000
 NMagM=    2.7928460   2.7928460   0.0000000   2.7928460   2.7928460   0.0000000   2.7928460   2.7928460   0.0000000   2.7928460
 AtZNuc=   1.0000000   1.0000000   8.0000000   1.0000000   1.0000000   8.0000000   1.0000000   1.0000000   8.0000000   1.0000000

  Atom       301         302         303         304         305         306         307         308         309         310
 IAtWgt=           1          16           1           1          16           1           1          16           1           1
 AtmWgt=   1.0078250  15.9949146   1.0078250   1.0078250  15.9949146   1.0078250   1.0078250  15.9949146   1.0078250   1.0078250
 NucSpn=           1           0           1           1           0           1           1           0           1           1
 AtZEff=  -0.0000000  -0.0000000  -0.0000000  -0.0000000  -0.0000000  -0.0000000  -0.0000000  -0.0000000  -0.0000000  -0.0000000
 NQMom=    0.0000000   0.0000000   0.0000000   0.0000000   0.0000000   0.0000000   0.0000000   0.0000000   0.0000000   0.0000000
 NMagM=    2.7928460   0.0000000   2.7928460   2.7928460   0.0000000   2.7928460   2.7928460   0.0000000   2.7928460   2.7928460
 AtZNuc=   1.0000000   8.0000000   1.0000000   1.0000000   8.0000000   1.0000000   1.0000000   8.0000000   1.0000000   1.0000000

  Atom       311         312         313         314         315         316         317         318         319         320
 IAtWgt=          16           1           1          16           1           1          16           1           1          16
 AtmWgt=  15.9949146   1.0078250   1.0078250  15.9949146   1.0078250   1.0078250  15.9949146   1.0078250   1.0078250  15.9949146
 NucSpn=           0           1           1           0           1           1           0           1           1           0
 AtZEff=  -0.0000000  -0.0000000  -0.0000000  -0.0000000  -0.0000000  -0.0000000  -0.0000000  -0.0000000  -0.0000000  -0.0000000
 NQMom=    0.0000000   0.0000000   0.0000000   0.0000000   0.0000000   0.0000000   0.0000000   0.0000000   0.0000000   0.0000000
 NMagM=    0.0000000   2.7928460   2.7928460   0.0000000   2.7928460   2.7928460   0.0000000   2.7928460   2.7928460   0.0000000
 AtZNuc=   8.0000000   1.0000000   1.0000000   8.0000000   1.0000000   1.0000000   8.0000000   1.0000000   1.0000000   8.0000000

  Atom       321         322         323         324         325         326         327         328         329         330
 IAtWgt=           1           1          16           1           1          16           1           1          16           1
 AtmWgt=   1.0078250   1.0078250  15.9949146   1.0078250   1.0078250  15.9949146   1.0078250   1.0078250  15.9949146   1.0078250
 NucSpn=           1           1           0           1           1           0           1           1           0           1
 AtZEff=  -0.0000000  -0.0000000  -0.0000000  -0.0000000  -0.0000000  -0.0000000  -0.0000000  -0.0000000  -0.0000000  -0.0000000
 NQMom=    0.0000000   0.0000000   0.0000000   0.0000000   0.0000000   0.0000000   0.0000000   0.0000000   0.0000000   0.0000000
 NMagM=    2.7928460   2.7928460   0.0000000   2.7928460   2.7928460   0.0000000   2.7928460   2.7928460   0.0000000   2.7928460
 AtZNuc=   1.0000000   1.0000000   8.0000000   1.0000000   1.0000000   8.0000000   1.0000000   1.0000000   8.0000000   1.0000000

  Atom       331         332         333         334         335         336         337         338         339         340
 IAtWgt=           1          16           1           1          16           1           1          16           1           1
 AtmWgt=   1.0078250  15.9949146   1.0078250   1.0078250  15.9949146   1.0078250   1.0078250  15.9949146   1.0078250   1.0078250
 NucSpn=           1           0           1           1           0           1           1           0           1           1
 AtZEff=  -0.0000000  -0.0000000  -0.0000000  -0.0000000  -0.0000000  -0.0000000  -0.0000000  -0.0000000  -0.0000000  -0.0000000
 NQMom=    0.0000000   0.0000000   0.0000000   0.0000000   0.0000000   0.0000000   0.0000000   0.0000000   0.0000000   0.0000000
 NMagM=    2.7928460   0.0000000   2.7928460   2.7928460   0.0000000   2.7928460   2.7928460   0.0000000   2.7928460   2.7928460
 AtZNuc=   1.0000000   8.0000000   1.0000000   1.0000000   8.0000000   1.0000000   1.0000000   8.0000000   1.0000000   1.0000000

  Atom       341         342         343         344         345         346         347         348         349         350
 IAtWgt=          16           1           1          16           1           1          16           1           1          16
 AtmWgt=  15.9949146   1.0078250   1.0078250  15.9949146   1.0078250   1.0078250  15.9949146   1.0078250   1.0078250  15.9949146
 NucSpn=           0           1           1           0           1           1           0           1           1           0
 AtZEff=  -0.0000000  -0.0000000  -0.0000000  -0.0000000  -0.0000000  -0.0000000  -0.0000000  -0.0000000  -0.0000000  -0.0000000
 NQMom=    0.0000000   0.0000000   0.0000000   0.0000000   0.0000000   0.0000000   0.0000000   0.0000000   0.0000000   0.0000000
 NMagM=    0.0000000   2.7928460   2.7928460   0.0000000   2.7928460   2.7928460   0.0000000   2.7928460   2.7928460   0.0000000
 AtZNuc=   8.0000000   1.0000000   1.0000000   8.0000000   1.0000000   1.0000000   8.0000000   1.0000000   1.0000000   8.0000000

  Atom       351         352         353         354         355         356         357         358         359         360
 IAtWgt=           1           1          16           1           1          16           1           1          16           1
 AtmWgt=   1.0078250   1.0078250  15.9949146   1.0078250   1.0078250  15.9949146   1.0078250   1.0078250  15.9949146   1.0078250
 NucSpn=           1           1           0           1           1           0           1           1           0           1
 AtZEff=  -0.0000000  -0.0000000  -0.0000000  -0.0000000  -0.0000000  -0.0000000  -0.0000000  -0.0000000  -0.0000000  -0.0000000
 NQMom=    0.0000000   0.0000000   0.0000000   0.0000000   0.0000000   0.0000000   0.0000000   0.0000000   0.0000000   0.0000000
 NMagM=    2.7928460   2.7928460   0.0000000   2.7928460   2.7928460   0.0000000   2.7928460   2.7928460   0.0000000   2.7928460
 AtZNuc=   1.0000000   1.0000000   8.0000000   1.0000000   1.0000000   8.0000000   1.0000000   1.0000000   8.0000000   1.0000000

  Atom       361         362         363         364         365         366         367         368         369         370
 IAtWgt=           1          16           1           1          16           1           1          16           1           1
 AtmWgt=   1.0078250  15.9949146   1.0078250   1.0078250  15.9949146   1.0078250   1.0078250  15.9949146   1.0078250   1.0078250
[...]
 ,0,-4.947324,2.420617,-1.292755\O,0,-4.57813,1.589622,-1.650216\H,0,-3
 .900982,1.325794,-0.982831\H,0,-3.559934,3.453815,2.462989\O,0,-2.8356
 24,2.833292,2.25298\H,0,-2.064431,3.188467,2.732235\H,0,2.554419,0.285
 767,-2.926639\O,0,1.951289,-0.341631,-2.478175\H,0,1.047271,-0.039223,
 -2.689512\H,0,-1.139913,0.321822,-3.583703\O,0,-0.335849,0.809192,-3.3
 0899\H,0,-0.586055,1.41754,-2.594229\H,0,2.675904,-0.503696,0.595552\O
 ,0,2.583401,-1.261174,-0.018252\H,0,2.320286,-0.894156,-0.883743\H,0,-
 2.848825,-0.42836,-0.565259\O,0,-2.984094,-0.906505,-1.394222\H,0,-3.7
 87459,-1.451238,-1.309236\H,0,2.817668,1.309379,-0.803494\O,0,1.996341
 ,1.82143,-0.695822\H,0,1.283569,1.174109,-0.510659\H,0,0.559483,3.1922
 48,-3.269606\O,0,1.478434,3.015173,-3.029485\H,0,1.482948,2.568452,-2.
 163386\H,0,0.134155,-3.939031,-0.466323\O,0,-0.102361,-4.636741,-1.119
 135\H,0,-0.880845,-5.084832,-0.721332\H,0,-6.249948,2.229614,3.000951\
 O,0,-6.308411,2.447806,3.967928\H,0,-7.057691,1.924414,4.314373\H,0,1.
 151367,-3.639253,1.380898\O,0,0.733726,-3.003875,0.770712\H,0,1.412046
 ,-2.348439,0.507403\H,0,-2.908784,5.259246,-1.06342\O,0,-2.726466,4.47
 1769,-0.516936\H,0,-3.613597,4.106211,-0.318149\H,0,-5.505301,-1.19572
 4,1.724364\O,0,-5.233971,-0.571789,1.017757\H,0,-5.340945,-1.045938,0.
 187784\H,0,-0.332878,-3.092643,3.110416\O,0,-0.026355,-2.27451,3.53559
 \H,0,0.917972,-2.17553,3.32931\H,0,5.247459,1.077603,-1.161775\O,0,4.4
 62173,0.551051,-0.954657\H,0,4.693252,0.152396,-0.085714\H,0,0.727957,
 2.473842,1.030874\O,0,0.720501,2.152475,1.941733\H,0,0.11184,1.394085,
 2.005352\H,0,4.451973,-0.472408,-2.299309\O,0,4.652315,-0.973318,-3.12
 2183\H,0,5.134478,-0.338874,-3.692321\H,0,3.044813,3.306001,-1.03162\O
 ,0,3.922417,3.709999,-1.016692\H,0,4.407959,3.404104,-1.806744\H,0,-5.
 873746,-1.483937,-1.856526\O,0,-5.343789,-2.175512,-1.403333\H,0,-5.25
 6475,-2.903007,-2.043247\H,0,-4.906215,-3.992975,1.328469\O,0,-5.59550
 1,-3.369309,1.033832\H,0,-5.36547,-3.099962,0.134344\H,0,2.711354,2.14
 8657,-3.679868\O,0,3.386039,1.465686,-3.872458\H,0,3.457496,1.410221,-
 4.830995\H,0,-5.16281,3.966562,3.69074\O,0,-4.59221,4.545815,3.174694\
 H,0,-4.066638,5.091222,3.79839\H,0,0.6414,0.982678,-4.726147\O,0,1.132
 02,0.852468,-5.563508\H,0,1.739094,0.10292,-5.390517\H,0,1.024668,5.80
 8162,-2.365354\O,0,1.817795,5.491026,-1.900522\H,0,2.372481,5.032317,-
 2.562296\H,0,-2.781382,-3.458406,-1.712457\O,0,-2.926228,-3.700722,-0.
 781537\H,0,-3.694569,-4.287317,-0.743417\H,0,2.078099,5.149104,-4.6049
 4\O,0,1.202755,5.229411,-5.022225\H,0,1.192233,4.520374,-5.693044\H,0,
 7.76902,1.894306,-0.918409\O,0,6.981124,1.524712,-1.357539\H,0,7.3418,
 0.829499,-1.944885\H,0,4.502261,2.848225,0.314821\O,0,4.836108,2.50569
 6,1.16877\H,0,4.763271,3.266012,1.782362\H,0,1.071762,-3.155036,-2.111
 664\O,0,1.930169,-3.007987,-2.533945\H,0,2.016415,-2.033019,-2.582686\
 H,0,1.181082,4.653086,-0.652964\O,0,0.723436,4.194405,0.087731\H,0,0.0
 44737,4.808786,0.420014\H,0,-5.743961,1.058617,1.241815\O,0,-6.231406,
 1.888356,1.417302\H,0,-7.163538,1.645926,1.184132\H,0,-2.268441,-2.588
 85,0.318264\O,0,-1.793318,-2.007142,0.941913\H,0,-0.883026,-2.346968,0
 .944083\H,0,-3.676687,-0.242355,4.292197\O,0,-3.668964,-0.359688,5.269
 618\H,0,-4.421997,-0.935045,5.534929\H,0,-6.056997,-2.783763,3.281196\
 O,0,-5.613985,-1.922237,3.354266\H,0,-4.66087,-2.146899,3.356561\H,0,-
 2.857205,-0.405671,-2.977216\O,0,-2.595535,-0.486339,-3.921418\H,0,-2.
 435018,-1.454212,-3.982623\H,0,-3.435135,-3.412661,-3.653863\O,0,-2.57
 6954,-3.026303,-3.412538\H,0,-1.88221,-3.662953,-3.674088\H,0,3.22598,
 -1.173698,-4.234854\O,0,2.673065,-1.305391,-5.028777\H,0,3.305822,-1.4
 8621,-5.742663\H,0,4.674366,2.296044,-6.639477\O,0,4.145297,1.472352,-
 6.639856\H,0,3.307546,1.698628,-7.052168\H,0,-4.183314,1.082982,5.7833
 77\O,0,-4.667433,1.911443,6.032053\H,0,-5.232082,2.121221,5.260767\H,0
 ,-3.947999,-0.029517,2.018078\O,0,-3.410207,0.296103,2.759927\H,0,-3.3
 28746,1.266723,2.663307\H,0,-5.798201,0.577358,-2.237931\O,0,-6.339153
 ,-0.096466,-2.699482\H,0,-5.911967,-0.203873,-3.571406\H,0,1.902336,-3
 .828085,-4.065019\O,0,1.837994,-4.295223,-4.920254\H,0,1.461556,-5.166
 649,-4.706666\H,0,4.484891,-3.51613,-0.589854\O,0,4.761719,-2.75575,-0
 .031131\H,0,3.997638,-2.133328,-0.043843\H,0,-0.248004,3.056894,-0.924
 659\O,0,-0.996355,2.671716,-1.410886\H,0,-1.711759,3.330248,-1.29054\H
 ,0,1.759069,4.468839,1.516382\O,0,2.213143,4.616703,2.365986\H,0,2.024
 796,3.834613,2.908036\H,0,3.705332,1.255062,1.639385\O,0,2.935851,0.67
 7069,1.808001\H,0,2.162194,1.261391,1.927131\H,0,3.156042,-3.935302,-2
 .018926\O,0,3.85696,-4.553685,-1.699136\H,0,4.534249,-4.573255,-2.3929
 1\H,0,4.982253,-3.784777,-4.468572\O,0,5.413343,-3.456506,-3.641542\H,
 0,5.004371,-2.598394,-3.410657\H,0,-1.082564,5.129798,2.06649\O,0,-1.2
 63131,5.673348,1.264151\H,0,-1.897172,5.167668,0.69326\H,0,-5.690519,3
 .220401,0.45627\O,0,-5.240642,3.71404,-0.255624\H,0,-5.693449,4.567001
 ,-0.419408\H,0,5.032177,-3.763831,2.975949\O,0,4.277861,-3.588811,2.40
 7053\H,0,4.609088,-3.315461,1.521692\H,0,5.847042,-1.214801,1.363922\O
 ,0,5.446372,-0.323144,1.344262\H,0,6.22965,0.259628,1.382775\H,0,1.650
 221,-6.656931,-3.058672\O,0,1.422475,-6.839647,-3.999484\H,0,2.295998,
 -7.00572,-4.398732\H,0,-7.194587,-3.577785,0.843838\O,0,-8.16231,-3.57
 8055,0.643186\H,0,-8.622073,-3.375848,1.487172\H,0,3.24299,-2.338477,2
 .838232\O,0,2.555667,-1.669136,3.018488\H,0,2.776338,-0.869586,2.50736
 5\H,0,-1.916476,2.7881,5.080797\O,0,-2.635332,3.431692,5.221811\H,0,-3
 .374287,2.930762,5.615976\H,0,-0.809603,0.997661,3.995016\O,0,-0.68964
 5,1.559703,4.793086\H,0,0.148563,2.013553,4.653649\H,0,0.25747,3.40977
 ,-6.954458\O,0,1.212504,3.215618,-6.83102\H,0,1.231267,2.370528,-6.342
 742\H,0,7.161871,-2.729848,4.741987\O,0,6.407818,-3.187904,4.300257\H,
 0,5.60129,-2.830777,4.741699\H,0,7.99539,1.570133,1.380493\O,0,7.91322
 2,0.64568,1.681431\H,0,8.400108,0.083135,1.050399\H,0,-4.085749,-0.509
 277,-4.638497\O,0,-5.014806,-0.556525,-4.972355\H,0,-5.003956,-0.19261
 7,-5.878863\H,0,6.447846,-1.37556,-2.155787\O,0,6.860392,-1.819266,-1.
 409847\H,0,6.131259,-2.09342,-0.821993\H,0,4.713207,-0.713581,4.447899
 \O,0,5.122118,0.0263,3.968501\H,0,5.070077,-0.150991,3.005029\H,0,-0.0
 20223,3.392956,2.856829\O,0,-0.65034,4.050304,3.214591\H,0,-0.339832,4
 .321663,4.100065\H,0,8.247035,-1.147114,-0.70621\O,0,9.034537,-0.76496
 ,-0.259155\H,0,9.73464,-1.4284,-0.32961\H,0,9.626406,-3.694364,2.18112
 6\O,0,9.328109,-3.516293,1.263055\H,0,10.092014,-3.35858,0.697535\H,0,
 -2.38717,-2.508187,3.893678\O,0,-3.010063,-2.608418,3.16373\H,0,-2.556
 21,-2.286072,2.344493\H,0,-2.165907,0.74801,-6.271186\O,0,-2.796875,1.
 493172,-6.31901\H,0,-3.048662,1.687484,-5.392266\H,0,-1.244846,3.82510
 3,-5.53872\O,0,-1.368541,3.77845,-6.515282\H,0,-1.956344,3.013522,-6.6
 48818\H,0,-4.582083,-6.210999,-1.063719\O,0,-5.056088,-5.46198,-0.6743
 08\H,0,-5.826578,-5.294905,-1.259546\H,0,2.679839,-5.762981,-1.432158\
 O,0,1.854809,-6.289037,-1.346594\H,0,1.132275,-5.605239,-1.267807\H,0,
 3.295515,-4.25379,-5.588558\O,0,4.256022,-4.242394,-5.855964\H,0,4.365
 201,-3.513773,-6.472675\H,0,7.478026,3.567163,2.010203\O,0,7.394932,3.
 199062,1.121447\H,0,6.466086,2.863969,1.074753\H,0,6.648605,-3.772498,
 0.378639\O,0,7.139171,-4.584177,0.168399\H,0,8.02688,-4.415206,0.54019
 5\H,0,-7.482527,-4.419831,-2.390774\O,0,-7.249696,-5.345694,-2.155593\
 H,0,-7.870481,-5.609795,-1.449697\H,0,-4.394879,6.882276,4.857139\O,0,
 -3.507667,6.546518,4.627858\H,0,-3.023184,6.35201,5.444678\H,0,7.26816
 9,3.692202,4.777633\O,0,7.266279,3.28019,3.903771\H,0,7.522914,2.34982
 7,4.051201\H,0,-5.791069,1.017401,6.943464\O,0,-6.558701,0.476605,7.24
 2055\H,0,-6.280388,-0.446069,7.118737\H,0,-0.454247,-4.833734,-2.83974
 1\O,0,-0.628771,-4.749877,-3.794408\H,0,-1.217832,-5.468226,-4.058827\
 H,0,6.721684,0.37885,4.3252\O,0,7.690865,0.57361,4.27834\H,0,7.903349,
 0.518323,3.319713\H,0,4.803514,-6.626875,-3.788768\O,0,4.121158,-6.788
 869,-4.473245\H,0,4.268562,-6.121373,-5.150725\H,0,-5.90915,-1.907683,
 -5.206873\O,0,-6.522559,-2.675411,-5.307275\H,0,-7.377338,-2.261019,-5
 .593657\H,0,-7.656157,0.752855,6.027261\O,0,-8.219948,1.072978,5.27815
 2\H,0,-8.833318,1.703538,5.659184\H,0,-5.24253,5.813628,2.230215\O,0,-
 5.482797,6.72154,1.954085\H,0,-4.627216,7.198436,1.928872\H,0,5.770605
 ,1.636573,-4.026116\O,0,6.01133,0.847657,-4.558765\H,0,5.516931,0.9257
 22,-5.377071\H,0,-5.886622,6.500127,0.305384\O,0,-5.913377,6.26153,-0.
 644828\H,0,-5.025035,6.497507,-0.986541\H,0,-0.248575,-7.542133,-3.278
 882\O,0,-0.957049,-7.717724,-2.633367\H,0,-0.498165,-7.819376,-1.789\H
 ,0,-2.512691,-1.478561,5.552934\O,0,-1.857299,-2.201078,5.702656\H,0,-
 1.025277,-1.728196,5.893913\H,0,7.538861,-4.425736,-1.495149\O,0,7.660
 033,-4.420161,-2.468475\H,0,6.879574,-3.958396,-2.820363\H,0,-8.817179
 ,-2.943488,-3.226578\O,0,-7.895487,-2.855688,-2.891318\H,0,-7.352783,-
 2.673035,-3.673564\H,0,8.837759,-3.246303,-2.869439\O,0,9.467716,-2.52
 2006,-3.07373\H,0,8.963287,-1.693271,-2.988812\H,0,-5.07228,-4.965112,
 -3.506261\O,0,-5.040676,-4.000744,-3.388785\H,0,-5.562077,-3.618694,-4
 .10568\H,0,-3.671761,4.013077,-3.569047\O,0,-3.384726,4.872897,-3.2209
 39\H,0,-3.674811,5.5617,-3.820218\H,0,-0.269324,4.75066,-4.102675\O,0,
 -0.923487,4.059653,-3.895286\H,0,-1.707693,4.507389,-3.518713\H,0,-1.9
 21057,-3.963024,5.422846\O,0,-2.211636,-4.829149,5.096377\H,0,-3.14596
 8,-4.690983,4.861372\H,0,-2.442486,8.385786,-3.852104\O,0,-2.643253,7.
 43195,-3.944275\H,0,-2.445061,7.183355,-4.874061\H,0,-3.007022,7.40229
 2,3.149764\O,0,-2.936761,7.58483,2.197729\H,0,-2.336485,6.891971,1.854
 172\H,0,4.810078,1.6879,4.165026\O,0,4.650479,2.639938,3.985163\H,0,5.
 522753,3.000844,3.7377\H,0,7.896894,-1.591315,6.264906\O,0,8.337788,-1
 .800452,5.41842\H,0,8.290752,-0.960225,4.92094\H,0,6.04225,-1.328219,7
 .778921\O,0,6.744101,-0.807873,7.3756\H,0,6.281897,-0.064037,6.928549\
 H,0,-1.77031,5.612266,-6.531874\O,0,-1.908501,6.554968,-6.352171\H,0,-
 1.039593,6.982171,-6.456963\H,0,-8.185837,-0.112148,3.97603\O,0,-8.000
 747,-0.659601,3.199916\H,0,-7.094635,-1.001127,3.304271\H,0,-8.51857,0
 .160629,0.219183\O,0,-8.550008,0.810888,0.940363\H,0,-8.519189,0.27873
 1,1.75364\H,0,0.846722,-0.404105,5.920307\O,0,0.014347,-0.474036,6.444
 078\H,0,-0.491632,0.293301,6.124823\H,0,-0.495158,7.041999,-1.752573\O
 ,0,-0.453051,6.643255,-2.644887\H,0,-1.309357,6.83269,-3.090374\H,0,0.
 64687,-8.054117,0.827916\O,0,-0.245908,-8.353565,0.544045\H,0,-0.73123
 2,-8.380794,1.400274\H,0,2.013433,2.805433,5.205533\O,0,2.022134,2.510
 009,4.270473\H,0,2.962554,2.53286,4.015362\H,0,-7.968088,-5.557785,-5.
 410865\O,0,-7.071925,-5.41821,-5.758519\H,0,-6.922308,-4.464327,-5.721
 374\H,0,3.061673,-7.436594,1.102177\O,0,2.149909,-7.110553,1.113787\H,
 0,2.052517,-6.78158,0.17169\H,0,3.288578,5.643012,-7.499678\O,0,3.4445
 46,4.680398,-7.606791\H,0,2.617528,4.231019,-7.373356\H,0,-0.543695,7.
 038336,0.417606\O,0,-0.241591,7.735704,-0.188428\H,0,-0.919322,8.42536
 5,-0.145961\H,0,4.430747,3.798422,5.166631\O,0,4.343523,4.457481,5.897
 205\H,0,5.225614,4.528549,6.271649\H,0,7.644408,2.98307,6.757044\O,0,7
 .11306,3.818658,6.669952\H,0,7.599509,4.488505,7.149147\H,0,4.192398,-
 7.972204,-0.957937\O,0,4.661208,-7.434286,-0.277521\H,0,5.098528,-6.76
 1492,-0.832419\H,0,6.729897,-5.920316,-2.600378\O,0,5.960385,-6.513193
 ,-2.534765\H,0,6.2935,-7.426123,-2.45642\H,0,-8.986219,-2.05316,3.0607
 58\O,0,-9.467988,-2.877358,2.837187\H,0,-10.207551,-2.583647,2.278369\
 H,0,-2.709662,8.80416,0.885269\O,0,-2.571258,9.147154,-0.01328\H,0,-3.
 3699,9.703158,-0.190799\H,0,8.104829,0.843915,7.335399\O,0,8.44276,1.5
 33374,6.753538\H,0,8.293873,1.192241,5.854622\H,0,-2.37635,5.275804,7.
 599054\O,0,-2.098099,5.481201,6.707653\H,0,-2.287918,4.665612,6.154401
 \H,0,-6.288098,-6.422942,-3.201789\O,0,-5.619617,-6.630901,-3.880078\H
 ,0,-6.06162,-6.359129,-4.713682\H,0,6.79664,-2.675518,2.720176\O,0,6.9
 16859,-2.427436,1.784723\H,0,7.863189,-2.507493,1.59532\H,0,2.298988,6
 .751804,-0.934673\O,0,2.552429,7.502196,-0.351531\H,0,1.707947,7.84162
 1,-0.030348\H,0,-4.182866,-7.348516,-2.74195\O,0,-3.604961,-7.388232,-
 1.970579\H,0,-2.701678,-7.493913,-2.318715\H,0,0.841195,6.673014,-5.73
 0485\O,0,0.664635,7.537572,-6.169456\H,0,0.6816,8.18222,-5.432154\H,0,
 -8.282232,-1.63027,-1.610623\O,0,-8.573354,-1.348951,-0.729342\H,0,-8.
 340337,-2.127465,-0.175163\H,0,-3.304155,7.125489,-2.2853\O,0,-3.39982
 3,6.960812,-1.337525\H,0,-3.098808,7.771965,-0.876719\H,0,2.830997,-4.
 466052,2.397998\O,0,1.91713,-4.813674,2.411311\H,0,1.980804,-5.706992,
 2.013535\H,0,-8.842327,-0.80443,-4.983375\O,0,-8.753479,-1.394202,-5.7
 68117\H,0,-8.471354,-0.805253,-6.490209\H,0,7.525267,-0.038221,-3.9153
 69\O,0,8.170855,-0.057872,-3.190105\H,0,8.842144,0.605654,-3.402834\H,
 0,4.191643,6.737219,-0.190321\O,0,4.901849,6.101342,-0.373291\H,0,4.44
 4957,5.258887,-0.59207\H,0,-7.970686,0.13472,-3.182263\O,0,-8.868783,0
 .140977,-3.573253\H,0,-9.469948,-0.082386,-2.861331\H,0,6.096894,3.816
 296,-3.345599\O,0,5.62404,3.035199,-3.003717\H,0,6.21451,2.621812,-2.3
 29747\H,0,-1.308015,-6.928725,0.243842\O,0,-1.912769,-6.177972,0.05483
 8\H,0,-2.513726,-6.509442,-0.62837\H,0,-3.946445,-7.736239,1.141587\O,
 0,-4.166352,-7.469386,2.037045\H,0,-3.956469,-6.505839,2.085991\H,0,-2
 .854309,-5.025997,1.272465\O,0,-3.565346,-4.902947,1.920711\H,0,-3.285
 082,-4.173804,2.511647\H,0,5.278452,-6.060593,4.910421\O,0,4.52171,-5.
 828059,4.368997\H,0,4.816408,-5.934633,3.448372\H,0,-9.567753,-6.23962
 7,-3.761645\O,0,-9.584743,-5.794771,-4.639986\H,0,-10.226046,-6.274655
 ,-5.164466\H,0,6.288582,-5.581704,1.297481\O,0,5.77862,-6.162073,1.898
 968\H,0,5.325152,-6.764518,1.294819\H,0,-1.351336,-6.659539,2.699865\O
 ,0,-1.492208,-7.619764,2.766767\H,0,-2.452569,-7.744471,2.762565\H,0,-
 10.079669,-4.084943,-4.377725\O,0,-10.209899,-3.155387,-4.125275\H,0,-
 9.980732,-2.617163,-4.895136\H,0,0.426672,7.949888,-3.375812\O,0,0.743
 802,8.77867,-3.791707\H,0,1.645202,8.927458,-3.43755\H,0,-9.095586,-7.
 967225,-2.349527\O,0,-9.685452,-7.212068,-2.363489\H,0,-9.566608,-6.76
 3037,-1.507037\H,0,2.080365,0.780353,4.571743\O,0,2.177913,-0.062743,5
 .054098\H,0,2.391603,-0.753232,4.39123\H,0,-6.574608,0.29487,-7.572655
 \O,0,-7.533552,0.380745,-7.444294\H,0,-7.689961,1.287337,-7.177098\H,0
 ,6.206467,3.828279,-7.348836\O,0,5.618147,3.777065,-6.595522\H,0,4.770
 427,4.22866,-6.89542\H,0,-5.373827,10.330063,0.497213\O,0,-4.883832,10
 .337489,-0.335903\H,0,-5.469216,9.842602,-0.942511\H,0,-0.816604,-1.17
 2345,-5.721195\O,0,-0.984478,-0.528739,-6.443722\H,0,-0.20051,0.052355
 ,-6.40321\H,0,4.728902,-0.502684,-6.929419\O,0,4.813767,-1.432197,-6.6
 91811\H,0,5.660817,-1.5239,-6.22054\H,0,2.654,-9.31788,-2.166291\O,0,3
 .588133,-8.995729,-2.320302\H,0,3.54785,-8.418212,-3.095334\H,0,-4.254
 604,-0.53867,-7.848329\O,0,-4.765596,0.219186,-7.525442\H,0,-4.087273,
 0.867463,-7.227362\H,0,1.334612,3.901248,6.620449\O,0,2.082437,3.31192
 7,6.839588\H,0,2.89439,3.835297,6.706993\H,0,-11.339952,-2.622179,0.09
 2151\O,0,-10.922479,-1.977932,0.664157\H,0,-10.192648,-1.59218,0.14820
 5\H,0,-7.417358,2.165363,7.593358\O,0,-7.893232,3.002607,7.495452\H,0,
 -8.011147,3.355936,8.37667\H,0,6.213645,-9.005112,-0.997723\O,0,6.2955
 56,-9.147288,-1.94552\H,0,5.399559,-9.36289,-2.246164\H,0,6.584056,5.2
 81481,-0.874321\O,0,7.224686,4.61414,-1.141146\H,0,7.417853,4.096223,-
 0.333102\H,0,-5.356174,-2.710159,5.918667\O,0,-5.371807,-1.93617,6.523
 605\H,0,-4.742734,-2.174494,7.226521\H,0,2.610275,1.67226,7.460362\O,0
 ,3.079584,0.828876,7.388985\H,0,2.759505,0.426675,6.554159\H,0,-2.6924
 81,-2.678153,7.125281\O,0,-3.178737,-2.797902,7.969529\H,0,-2.557723,-
 2.455789,8.629011\H,0,5.775288,2.222065,6.639508\O,0,5.489556,1.3427,6
 .385447\H,0,4.605526,1.196967,6.78274\H,0,1.995645,-4.226333,4.218502\
 O,0,2.477916,-4.147618,5.054116\H,0,3.179838,-4.818584,4.981566\H,0,10
 .428623,-2.679654,-1.74414\O,0,10.926996,-2.669548,-0.881715\H,0,11.85
 5572,-2.646581,-1.106275\H,0,3.848234,8.285195,-3.016425\O,0,3.167788,
 8.864986,-2.652467\H,0,2.995892,8.530673,-1.75321\H,0,-8.149024,-6.430
 002,0.533258\O,0,-8.796716,-6.020598,-0.062903\H,0,-8.745533,-5.066063
 ,0.189315\H,0,-0.769641,9.659822,-3.412086\O,0,-1.708,9.8269,-3.201698
 \H,0,-1.772853,9.963609,-2.254036\H,0,4.098676,4.001913,-3.81821\O,0,3
 .544578,4.787396,-3.855713\H,0,4.1047,5.567183,-3.660463\H,0,5.145122,
 6.616243,-2.064798\O,0,5.073226,6.808151,-3.020133\H,0,5.85513,6.44441
 5,-3.455222\H,0,-0.399075,5.348028,6.020078\O,0,0.321079,4.863708,5.59
 2145\H,0,1.010941,5.502687,5.290534\H,0,3.183415,5.720078,5.069199\O,0
 ,2.418285,6.151592,4.660567\H,0,2.365711,5.803971,3.756146\H,0,-7.2126
 62,9.007082,-0.298192\O,0,-6.923257,8.767081,-1.188296\H,0,-6.688478,7
 .823534,-1.14263\H,0,-1.290734,-4.91701,3.702389\O,0,-0.846966,-4.8503
 33,2.825973\H,0,0.075749,-5.099147,2.928334\H,0,4.244052,-1.963633,6.3
 00418\O,0,4.242033,-2.135094,5.334394\H,0,3.530879,-2.788576,5.174965\
 H,0,7.128867,-6.034491,3.303192\O,0,7.505818,-5.65388,4.106809\H,0,7.0
 29957,-4.813192,4.242555\H,0,9.046763,-4.680678,4.016229\O,0,9.677764,
 -3.951583,3.866695\H,0,9.409633,-3.240157,4.461063\H,0,3.016085,7.8407
 47,-8.174936\O,0,3.022392,7.318603,-7.37404\H,0,2.150341,7.475311,-6.9
 368\H,0,-0.582322,-1.111692,8.164032\O,0,-0.787581,-1.735231,8.874779\
 H,0,-0.074782,-2.380171,8.860864\H,0,8.343048,4.516833,-2.333749\O,0,9
 .018959,4.530045,-3.059657\H,0,9.743183,5.052354,-2.714674\H,0,6.35662
 7,4.658457,-5.238532\O,0,6.679187,5.071937,-4.416015\H,0,7.626778,4.91
 7822,-4.328221\H,0,10.631442,2.159068,-4.208548\O,0,9.897462,2.060459,
 -3.604098\H,0,9.514265,2.95392,-3.456655\H,0,3.163135,-2.213444,7.9596
 38\O,0,3.994183,-1.699979,7.951268\H,0,3.714646,-0.773731,8.011109\H,0
 ,-2.43451,-2.097201,-8.705537\O,0,-2.843183,-1.752564,-7.912497\H,0,-2
 .138799,-1.285632,-7.412765\H,0,5.083464,5.488032,1.457925\O,0,4.88039
 6,4.946559,2.231138\H,0,3.911238,4.971522,2.331836\H,0,-3.747814,-6.36
 0943,-4.663206\O,0,-2.941099,-5.84881,-4.752605\H,0,-3.171173,-5.08331
 8,-5.302959\H,0,-6.581693,6.291659,4.855968\O,0,-6.148842,7.111672,4.5
 54615\H,0,-6.018554,7.01001,3.585663\H,0,-7.466226,4.281867,6.115241\O
 ,0,-7.209342,4.6964,5.282016\H,0,-6.96264,3.958651,4.701047\H,0,-7.292
 176,9.569041,2.324649\O,0,-7.052546,9.944155,1.452545\H,0,-7.523445,10
 .775696,1.387353\H,0,-5.940229,-6.880299,1.891289\O,0,-6.55646,-6.2612
 92,1.470239\H,0,-6.022606,-5.83016,0.769164\H,0,-3.744039,-4.516449,7.
 766638\O,0,-3.976385,-5.369549,7.357625\H,0,-3.185121,-5.648811,6.8826
 4\H,0,9.541583,0.895442,-0.565268\O,0,9.587463,1.847722,-0.768451\H,0,
 9.893346,1.898422,-1.680109\H,0,-7.942533,-4.113674,3.403086\O,0,-7.01
 5971,-4.375272,3.408379\H,0,-6.888726,-5.029589,2.692111\H,0,1.080581,
 -2.111061,6.980076\O,0,1.58248,-2.843178,7.354429\H,0,1.796692,-3.4285
 08,6.61108\H,0,-3.450028,-2.981199,-6.723764\O,0,-3.860759,-3.597,-6.0
 98918\H,0,-4.809775,-3.468979,-6.181488\H,0,-8.719301,8.474052,3.76014
 4\O,0,-7.930107,9.010426,3.849127\H,0,-7.24932,8.425567,4.243723\H,0,8
 .007479,-2.140462,-5.122308\O,0,7.082734,-1.889178,-5.146401\H,0,6.618
 201,-2.522973,-4.566918\H,0,-4.86244,-4.762988,5.933561\O,0,-4.911616,
 -4.196871,5.138406\H,0,-5.676912,-4.458003,4.60628\\Version=ES64L-G16R
 evB.01\HF=-40.6121518\RMSD=3.755e-09\Dipole=4.4971652,-0.2014953,-2.65
 3059\Quadrupole=6.2725191,-10.3660589,4.0935398,-20.8419059,-16.370099
 8,9.9193459\PG=C01 [X(H400O200)]\\@


 CONTRAIWISE...CONTINUED TWEEDLEDEE, IF IT WAS SO, IT MIGHT BE,
 AND IF IT WERE SO, IT WOULD BE.....
 BUT AS IT ISN'T, IT AIN'T....
 THAT'S LOGIC.....
 ALICE THROUGH THE LOOKING GLASS
 Job cpu time:       0 days  2 hours  1 minutes 12.3 seconds.
 Elapsed time:       0 days  0 hours  5 minutes  4.0 seconds.
 File lengths (MBytes):  RWF=    291 Int=      0 D2E=      0 Chk=     55 Scr=      1
 Normal termination of Gaussian 16 at Mon Jan 25 15:13:50 2021.
