
                                 *****************
                                 * O   R   C   A *
                                 *****************

                                            #,                                       
                                            ###                                      
                                            ####                                     
                                            #####                                    
                                            ######                                   
                                           ########,                                 
                                     ,,################,,,,,                         
                               ,,#################################,,                 
                          ,,##########################################,,             
                       ,#########################################, ''#####,          
                    ,#############################################,,   '####,        
                  ,##################################################,,,,####,       
                ,###########''''           ''''###############################       
              ,#####''   ,,,,##########,,,,          '''####'''          '####       
            ,##' ,,,,###########################,,,                        '##       
           ' ,,###''''                  '''############,,,                           
         ,,##''                                '''############,,,,        ,,,,,,###''
      ,#''                                            '''#######################'''  
     '                                                          ''''####''''         
             ,#######,   #######,   ,#######,      ##                                
            ,#'     '#,  ##    ##  ,#'     '#,    #''#        ######   ,####,        
            ##       ##  ##   ,#'  ##            #'  '#       #        #'  '#        
            ##       ##  #######   ##           ,######,      #####,   #    #        
            '#,     ,#'  ##    ##  '#,     ,#' ,#      #,         ##   #,  ,#        
             '#######'   ##     ##  '#######'  #'      '#     #####' # '####'        



                  #######################################################
                  #                        -***-                        #
                  #          Department of theory and spectroscopy      #
                  #    Directorship and core code : Frank Neese         #
                  #        Max Planck Institute fuer Kohlenforschung    #
                  #                Kaiser Wilhelm Platz 1               #
                  #                 D-45470 Muelheim/Ruhr               #
                  #                      Germany                        #
                  #                                                     #
                  #                  All rights reserved                #
                  #                        -***-                        #
                  #######################################################


                         Program Version 5.0.1 -  RELEASE  -


 With contributions from (in alphabetic order):
   Daniel Aravena         : Magnetic Suceptibility
   Michael Atanasov       : Ab Initio Ligand Field Theory (pilot matlab implementation)
   Alexander A. Auer      : GIAO ZORA, VPT2 properties, NMR spectrum
   Ute Becker             : Parallelization
   Giovanni Bistoni       : ED, misc. LED, open-shell LED, HFLD
   Martin Brehm           : Molecular dynamics
   Dmytro Bykov           : SCF Hessian
   Vijay G. Chilkuri      : MRCI spin determinant printing, contributions to CSF-ICE
   Dipayan Datta          : RHF DLPNO-CCSD density
   Achintya Kumar Dutta   : EOM-CC, STEOM-CC
   Dmitry Ganyushin       : Spin-Orbit,Spin-Spin,Magnetic field MRCI
   Miquel Garcia          : C-PCM and meta-GGA Hessian, CC/C-PCM, Gaussian charge scheme
   Yang Guo               : DLPNO-NEVPT2, F12-NEVPT2, CIM, IAO-localization
   Andreas Hansen         : Spin unrestricted coupled pair/coupled cluster methods
   Benjamin Helmich-Paris : MC-RPA, TRAH-SCF, COSX integrals
   Lee Huntington         : MR-EOM, pCC
   Robert Izsak           : Overlap fitted RIJCOSX, COSX-SCS-MP3, EOM
   Marcus Kettner         : VPT2
   Christian Kollmar      : KDIIS, OOCD, Brueckner-CCSD(T), CCSD density, CASPT2, CASPT2-K
   Simone Kossmann        : Meta GGA functionals, TD-DFT gradient, OOMP2, MP2 Hessian
   Martin Krupicka        : Initial AUTO-CI
   Lucas Lang             : DCDCAS
   Marvin Lechner         : AUTO-CI (C++ implementation), FIC-MRCC
   Dagmar Lenk            : GEPOL surface, SMD
   Dimitrios Liakos       : Extrapolation schemes; Compound Job, initial MDCI parallelization
   Dimitrios Manganas     : Further ROCIS development; embedding schemes
   Dimitrios Pantazis     : SARC Basis sets
   Anastasios Papadopoulos: AUTO-CI, single reference methods and gradients
   Taras Petrenko         : DFT Hessian,TD-DFT gradient, ASA, ECA, R-Raman, ABS, FL, XAS/XES, NRVS
   Peter Pinski           : DLPNO-MP2, DLPNO-MP2 Gradient
   Christoph Reimann      : Effective Core Potentials
   Marius Retegan         : Local ZFS, SOC
   Christoph Riplinger    : Optimizer, TS searches, QM/MM, DLPNO-CCSD(T), (RO)-DLPNO pert. Triples
   Tobias Risthaus        : Range-separated hybrids, TD-DFT gradient, RPA, STAB
   Michael Roemelt        : Original ROCIS implementation
   Masaaki Saitow         : Open-shell DLPNO-CCSD energy and density
   Barbara Sandhoefer     : DKH picture change effects
   Avijit Sen             : IP-ROCIS
   Kantharuban Sivalingam : CASSCF convergence, NEVPT2, FIC-MRCI
   Bernardo de Souza      : ESD, SOC TD-DFT
   Georgi Stoychev        : AutoAux, RI-MP2 NMR, DLPNO-MP2 response
   Willem Van den Heuvel  : Paramagnetic NMR
   Boris Wezisla          : Elementary symmetry handling
   Frank Wennmohs         : Technical directorship


 We gratefully acknowledge several colleagues who have allowed us to
 interface, adapt or use parts of their codes:
   Stefan Grimme, W. Hujo, H. Kruse, P. Pracht,  : VdW corrections, initial TS optimization,
                  C. Bannwarth, S. Ehlert          DFT functionals, gCP, sTDA/sTD-DF
   Ed Valeev, F. Pavosevic, A. Kumar             : LibInt (2-el integral package), F12 methods
   Garnet Chan, S. Sharma, J. Yang, R. Olivares  : DMRG
   Ulf Ekstrom                                   : XCFun DFT Library
   Mihaly Kallay                                 : mrcc  (arbitrary order and MRCC methods)
   Jiri Pittner, Ondrej Demel                    : Mk-CCSD
   Frank Weinhold                                : gennbo (NPA and NBO analysis)
   Christopher J. Cramer and Donald G. Truhlar   : smd solvation model
   Lars Goerigk                                  : TD-DFT with DH, B97 family of functionals
   V. Asgeirsson, H. Jonsson                     : NEB implementation
   FAccTs GmbH                                   : IRC, NEB, NEB-TS, DLPNO-Multilevel, CI-OPT
                                                   MM, QMMM, 2- and 3-layer-ONIOM, Crystal-QMMM,
                                                   LR-CPCM, SF, NACMEs, symmetry and pop. for TD-DFT,
                                                   nearIR, NL-DFT gradient (VV10), updates on ESD,
                                                   ML-optimized integration grids
   S Lehtola, MJT Oliveira, MAL Marques          : LibXC Library
   Liviu Ungur et al                             : ANISO software


 Your calculation uses the libint2 library for the computation of 2-el integrals
 For citations please refer to: http://libint.valeyev.net

 Your ORCA version has been built with support for libXC version: 5.1.0
 For citations please refer to: https://tddft.org/programs/libxc/

 This ORCA versions uses:
   CBLAS   interface :  Fast vector & matrix operations
   LAPACKE interface :  Fast linear algebra routines
   SCALAPACK package :  Parallel linear algebra routines
   Shared memory     :  Shared parallel matrices
   BLAS/LAPACK       :  OpenBLAS 0.3.15  USE64BITINT DYNAMIC_ARCH NO_AFFINITY Haswell SINGLE_THREADED
        Core in use  :  Haswell
   Copyright (c) 2011-2014, The OpenBLAS Project


================================================================================

----- Orbital basis set information -----
Your calculation utilizes the basis: aug-cc-pVTZ 
    H, B-Ne : Obtained from the ccRepo (grant-hill.group.shef.ac.uk/ccrepo) Feb. 2017
              R. A. Kendall, T. H. Dunning, Jr., R. J. Harrison, J. Chem. Phys. 96, 6796 (1992)
         He : Obtained from the ccRepo (grant-hill.group.shef.ac.uk/ccrepo) Feb. 2017
              D. E. Woon, T. H. Dunning, Jr., J. Chem. Phys. 100, 2975 (1994)
  Li-Be, Na : Obtained from the ccRepo (grant-hill.group.shef.ac.uk/ccrepo) Feb. 2017
              B. P. Prascher, D. E. Woon, K. A. Peterson, T. H. Dunning, Jr., A. K. Wilson, Theor. Chem. Acc. 128, 69 (2011)
         Mg : Obtained from the Peterson Research Group Website (tyr0.chem.wsu.edu/~kipeters) Feb. 2017
              B. P. Prascher, D. E. Woon, K. A. Peterson, T. H. Dunning, Jr., A. K. Wilson, Theor. Chem. Acc. 128, 69 (2011)
      Al-Ar : Obtained from the ccRepo (grant-hill.group.shef.ac.uk/ccrepo) Feb. 2017
              D. E. Woon, T. H. Dunning, Jr., J. Chem. Phys. 98, 1358 (1993)
      Sc-Zn : Obtained from the ccRepo (grant-hill.group.shef.ac.uk/ccrepo) Feb. 2017
              N. B. Balabanov, K. A. Peterson, J. Chem. Phys. 123, 064107 (2005)
              N. B. Balabanov, K. A. Peterson, J. Chem. Phys. 125, 074110 (2006)
      Ga-Kr : Obtained from the ccRepo (grant-hill.group.shef.ac.uk/ccrepo) Feb. 2017
              A. K. Wilson, D. E. Woon, K. A. Peterson, T. H. Dunning, Jr., J. Chem. Phys. 110, 7667 (1999)
     Ag, Au : Obtained from the Peterson Research Group Website (tyr0.chem.wsu.edu/~kipeters) Feb. 2017
              K. A. Peterson, C. Puzzarini, Theor. Chem. Acc. 114, 283 (2005)

----- AuxC basis set information -----
Your calculation utilizes the auxiliary basis: aug-cc-pVTZ/C 
  H-He, B-F, Al-Ar, Ga-Kr : Obtained from the EMSL Basis Set Exchange (bse.pnl.gov) Feb. 2017
                            F. Weigend, A. Kohn, C. Hattig, J. Chem. Phys. 116, 3175 (2002)
                   Be, Mg : Obtained from the TURBOMOLE 7.0 basis set library
                            C. Haettig, Phys. Chem. Chem. Phys. 7, 59 (2005)
                       Ne : Obtained from the EMSL Basis Set Exchange (bse.pnl.gov) Feb. 2017
                            C. Haettig, Phys. Chem. Chem. Phys. 7, 59 (2005)
                            F. Weigend, A. Kohn, C. Hattig, J. Chem. Phys. 116, 3175 (2002)
                    Sc-Zn : Obtained from the EMSL Basis Set Exchange (bse.pnl.gov) Feb. 2017
                            J. G. Hill, J. A. Platts, J. Chem. Phys. 128, 044104 (2008)

================================================================================
                                        WARNINGS
                       Please study these warnings very carefully!
================================================================================


WARNING: Post HF methods need fully converged wavefunctions
  ===> : Setting SCFConvForced true
         You can overwrite this default with %scf ConvForced false 


WARNING: MDCI localization with Augmented Hessian Foster-Boys
  ===> : Switching off randomization!

INFO   : the flag for use of the SHARK integral package has been found!

================================================================================

----- Orbital basis set information -----
Your calculation utilizes the basis: aug-cc-pVTZ 
    H, B-Ne : Obtained from the ccRepo (grant-hill.group.shef.ac.uk/ccrepo) Feb. 2017
              R. A. Kendall, T. H. Dunning, Jr., R. J. Harrison, J. Chem. Phys. 96, 6796 (1992)
         He : Obtained from the ccRepo (grant-hill.group.shef.ac.uk/ccrepo) Feb. 2017
              D. E. Woon, T. H. Dunning, Jr., J. Chem. Phys. 100, 2975 (1994)
  Li-Be, Na : Obtained from the ccRepo (grant-hill.group.shef.ac.uk/ccrepo) Feb. 2017
              B. P. Prascher, D. E. Woon, K. A. Peterson, T. H. Dunning, Jr., A. K. Wilson, Theor. Chem. Acc. 128, 69 (2011)
         Mg : Obtained from the Peterson Research Group Website (tyr0.chem.wsu.edu/~kipeters) Feb. 2017
              B. P. Prascher, D. E. Woon, K. A. Peterson, T. H. Dunning, Jr., A. K. Wilson, Theor. Chem. Acc. 128, 69 (2011)
      Al-Ar : Obtained from the ccRepo (grant-hill.group.shef.ac.uk/ccrepo) Feb. 2017
              D. E. Woon, T. H. Dunning, Jr., J. Chem. Phys. 98, 1358 (1993)
      Sc-Zn : Obtained from the ccRepo (grant-hill.group.shef.ac.uk/ccrepo) Feb. 2017
              N. B. Balabanov, K. A. Peterson, J. Chem. Phys. 123, 064107 (2005)
              N. B. Balabanov, K. A. Peterson, J. Chem. Phys. 125, 074110 (2006)
      Ga-Kr : Obtained from the ccRepo (grant-hill.group.shef.ac.uk/ccrepo) Feb. 2017
              A. K. Wilson, D. E. Woon, K. A. Peterson, T. H. Dunning, Jr., J. Chem. Phys. 110, 7667 (1999)
     Ag, Au : Obtained from the Peterson Research Group Website (tyr0.chem.wsu.edu/~kipeters) Feb. 2017
              K. A. Peterson, C. Puzzarini, Theor. Chem. Acc. 114, 283 (2005)

----- AuxC basis set information -----
Your calculation utilizes the auxiliary basis: aug-cc-pVTZ/C 
  H-He, B-F, Al-Ar, Ga-Kr : Obtained from the EMSL Basis Set Exchange (bse.pnl.gov) Feb. 2017
                            F. Weigend, A. Kohn, C. Hattig, J. Chem. Phys. 116, 3175 (2002)
                   Be, Mg : Obtained from the TURBOMOLE 7.0 basis set library
                            C. Haettig, Phys. Chem. Chem. Phys. 7, 59 (2005)
                       Ne : Obtained from the EMSL Basis Set Exchange (bse.pnl.gov) Feb. 2017
                            C. Haettig, Phys. Chem. Chem. Phys. 7, 59 (2005)
                            F. Weigend, A. Kohn, C. Hattig, J. Chem. Phys. 116, 3175 (2002)
                    Sc-Zn : Obtained from the EMSL Basis Set Exchange (bse.pnl.gov) Feb. 2017
                            J. G. Hill, J. A. Platts, J. Chem. Phys. 128, 044104 (2008)

================================================================================
                                        WARNINGS
                       Please study these warnings very carefully!
================================================================================


WARNING: MOInp is set but Guess=PModel. MOInp will be ignored!
         To read the initial guess from a file you must also specify
         'MORead' in the simple input or 'Guess MORead' in the %scf block


WARNING: MDCI localization with Augmented Hessian Foster-Boys
  ===> : Switching off randomization!

INFO   : the flag for use of the SHARK integral package has been found!

================================================================================

----- Orbital basis set information -----
Your calculation utilizes the basis: aug-cc-pVTZ 
    H, B-Ne : Obtained from the ccRepo (grant-hill.group.shef.ac.uk/ccrepo) Feb. 2017
              R. A. Kendall, T. H. Dunning, Jr., R. J. Harrison, J. Chem. Phys. 96, 6796 (1992)
         He : Obtained from the ccRepo (grant-hill.group.shef.ac.uk/ccrepo) Feb. 2017
              D. E. Woon, T. H. Dunning, Jr., J. Chem. Phys. 100, 2975 (1994)
  Li-Be, Na : Obtained from the ccRepo (grant-hill.group.shef.ac.uk/ccrepo) Feb. 2017
              B. P. Prascher, D. E. Woon, K. A. Peterson, T. H. Dunning, Jr., A. K. Wilson, Theor. Chem. Acc. 128, 69 (2011)
         Mg : Obtained from the Peterson Research Group Website (tyr0.chem.wsu.edu/~kipeters) Feb. 2017
              B. P. Prascher, D. E. Woon, K. A. Peterson, T. H. Dunning, Jr., A. K. Wilson, Theor. Chem. Acc. 128, 69 (2011)
      Al-Ar : Obtained from the ccRepo (grant-hill.group.shef.ac.uk/ccrepo) Feb. 2017
              D. E. Woon, T. H. Dunning, Jr., J. Chem. Phys. 98, 1358 (1993)
      Sc-Zn : Obtained from the ccRepo (grant-hill.group.shef.ac.uk/ccrepo) Feb. 2017
              N. B. Balabanov, K. A. Peterson, J. Chem. Phys. 123, 064107 (2005)
              N. B. Balabanov, K. A. Peterson, J. Chem. Phys. 125, 074110 (2006)
      Ga-Kr : Obtained from the ccRepo (grant-hill.group.shef.ac.uk/ccrepo) Feb. 2017
              A. K. Wilson, D. E. Woon, K. A. Peterson, T. H. Dunning, Jr., J. Chem. Phys. 110, 7667 (1999)
     Ag, Au : Obtained from the Peterson Research Group Website (tyr0.chem.wsu.edu/~kipeters) Feb. 2017
              K. A. Peterson, C. Puzzarini, Theor. Chem. Acc. 114, 283 (2005)

----- AuxC basis set information -----
Your calculation utilizes the auxiliary basis: aug-cc-pVTZ/C 
  H-He, B-F, Al-Ar, Ga-Kr : Obtained from the EMSL Basis Set Exchange (bse.pnl.gov) Feb. 2017
                            F. Weigend, A. Kohn, C. Hattig, J. Chem. Phys. 116, 3175 (2002)
                   Be, Mg : Obtained from the TURBOMOLE 7.0 basis set library
                            C. Haettig, Phys. Chem. Chem. Phys. 7, 59 (2005)
                       Ne : Obtained from the EMSL Basis Set Exchange (bse.pnl.gov) Feb. 2017
                            C. Haettig, Phys. Chem. Chem. Phys. 7, 59 (2005)
                            F. Weigend, A. Kohn, C. Hattig, J. Chem. Phys. 116, 3175 (2002)
                    Sc-Zn : Obtained from the EMSL Basis Set Exchange (bse.pnl.gov) Feb. 2017
                            J. G. Hill, J. A. Platts, J. Chem. Phys. 128, 044104 (2008)

================================================================================
                                        WARNINGS
                       Please study these warnings very carefully!
================================================================================


WARNING: MOInp is set but Guess=PModel. MOInp will be ignored!
         To read the initial guess from a file you must also specify
         'MORead' in the simple input or 'Guess MORead' in the %scf block


WARNING: MDCI localization with Augmented Hessian Foster-Boys
  ===> : Switching off randomization!

INFO   : the flag for use of the SHARK integral package has been found!

================================================================================

----- Orbital basis set information -----
Your calculation utilizes the basis: aug-cc-pVTZ 
    H, B-Ne : Obtained from the ccRepo (grant-hill.group.shef.ac.uk/ccrepo) Feb. 2017
              R. A. Kendall, T. H. Dunning, Jr., R. J. Harrison, J. Chem. Phys. 96, 6796 (1992)
         He : Obtained from the ccRepo (grant-hill.group.shef.ac.uk/ccrepo) Feb. 2017
              D. E. Woon, T. H. Dunning, Jr., J. Chem. Phys. 100, 2975 (1994)
  Li-Be, Na : Obtained from the ccRepo (grant-hill.group.shef.ac.uk/ccrepo) Feb. 2017
              B. P. Prascher, D. E. Woon, K. A. Peterson, T. H. Dunning, Jr., A. K. Wilson, Theor. Chem. Acc. 128, 69 (2011)
         Mg : Obtained from the Peterson Research Group Website (tyr0.chem.wsu.edu/~kipeters) Feb. 2017
              B. P. Prascher, D. E. Woon, K. A. Peterson, T. H. Dunning, Jr., A. K. Wilson, Theor. Chem. Acc. 128, 69 (2011)
      Al-Ar : Obtained from the ccRepo (grant-hill.group.shef.ac.uk/ccrepo) Feb. 2017
              D. E. Woon, T. H. Dunning, Jr., J. Chem. Phys. 98, 1358 (1993)
      Sc-Zn : Obtained from the ccRepo (grant-hill.group.shef.ac.uk/ccrepo) Feb. 2017
              N. B. Balabanov, K. A. Peterson, J. Chem. Phys. 123, 064107 (2005)
              N. B. Balabanov, K. A. Peterson, J. Chem. Phys. 125, 074110 (2006)
      Ga-Kr : Obtained from the ccRepo (grant-hill.group.shef.ac.uk/ccrepo) Feb. 2017
              A. K. Wilson, D. E. Woon, K. A. Peterson, T. H. Dunning, Jr., J. Chem. Phys. 110, 7667 (1999)
     Ag, Au : Obtained from the Peterson Research Group Website (tyr0.chem.wsu.edu/~kipeters) Feb. 2017
              K. A. Peterson, C. Puzzarini, Theor. Chem. Acc. 114, 283 (2005)

----- AuxC basis set information -----
Your calculation utilizes the auxiliary basis: aug-cc-pVTZ/C 
  H-He, B-F, Al-Ar, Ga-Kr : Obtained from the EMSL Basis Set Exchange (bse.pnl.gov) Feb. 2017
                            F. Weigend, A. Kohn, C. Hattig, J. Chem. Phys. 116, 3175 (2002)
                   Be, Mg : Obtained from the TURBOMOLE 7.0 basis set library
                            C. Haettig, Phys. Chem. Chem. Phys. 7, 59 (2005)
                       Ne : Obtained from the EMSL Basis Set Exchange (bse.pnl.gov) Feb. 2017
                            C. Haettig, Phys. Chem. Chem. Phys. 7, 59 (2005)
                            F. Weigend, A. Kohn, C. Hattig, J. Chem. Phys. 116, 3175 (2002)
                    Sc-Zn : Obtained from the EMSL Basis Set Exchange (bse.pnl.gov) Feb. 2017
                            J. G. Hill, J. A. Platts, J. Chem. Phys. 128, 044104 (2008)

================================================================================
                                        WARNINGS
                       Please study these warnings very carefully!
================================================================================


WARNING: MOInp is set but Guess=PModel. MOInp will be ignored!
         To read the initial guess from a file you must also specify
         'MORead' in the simple input or 'Guess MORead' in the %scf block


WARNING: MDCI localization with Augmented Hessian Foster-Boys
  ===> : Switching off randomization!

INFO   : the flag for use of the SHARK integral package has been found!

================================================================================

----- Orbital basis set information -----
Your calculation utilizes the basis: aug-cc-pVTZ 
    H, B-Ne : Obtained from the ccRepo (grant-hill.group.shef.ac.uk/ccrepo) Feb. 2017
              R. A. Kendall, T. H. Dunning, Jr., R. J. Harrison, J. Chem. Phys. 96, 6796 (1992)
         He : Obtained from the ccRepo (grant-hill.group.shef.ac.uk/ccrepo) Feb. 2017
              D. E. Woon, T. H. Dunning, Jr., J. Chem. Phys. 100, 2975 (1994)
  Li-Be, Na : Obtained from the ccRepo (grant-hill.group.shef.ac.uk/ccrepo) Feb. 2017
              B. P. Prascher, D. E. Woon, K. A. Peterson, T. H. Dunning, Jr., A. K. Wilson, Theor. Chem. Acc. 128, 69 (2011)
         Mg : Obtained from the Peterson Research Group Website (tyr0.chem.wsu.edu/~kipeters) Feb. 2017
              B. P. Prascher, D. E. Woon, K. A. Peterson, T. H. Dunning, Jr., A. K. Wilson, Theor. Chem. Acc. 128, 69 (2011)
      Al-Ar : Obtained from the ccRepo (grant-hill.group.shef.ac.uk/ccrepo) Feb. 2017
              D. E. Woon, T. H. Dunning, Jr., J. Chem. Phys. 98, 1358 (1993)
      Sc-Zn : Obtained from the ccRepo (grant-hill.group.shef.ac.uk/ccrepo) Feb. 2017
              N. B. Balabanov, K. A. Peterson, J. Chem. Phys. 123, 064107 (2005)
              N. B. Balabanov, K. A. Peterson, J. Chem. Phys. 125, 074110 (2006)
      Ga-Kr : Obtained from the ccRepo (grant-hill.group.shef.ac.uk/ccrepo) Feb. 2017
              A. K. Wilson, D. E. Woon, K. A. Peterson, T. H. Dunning, Jr., J. Chem. Phys. 110, 7667 (1999)
     Ag, Au : Obtained from the Peterson Research Group Website (tyr0.chem.wsu.edu/~kipeters) Feb. 2017
              K. A. Peterson, C. Puzzarini, Theor. Chem. Acc. 114, 283 (2005)

----- AuxC basis set information -----
Your calculation utilizes the auxiliary basis: aug-cc-pVTZ/C 
  H-He, B-F, Al-Ar, Ga-Kr : Obtained from the EMSL Basis Set Exchange (bse.pnl.gov) Feb. 2017
                            F. Weigend, A. Kohn, C. Hattig, J. Chem. Phys. 116, 3175 (2002)
                   Be, Mg : Obtained from the TURBOMOLE 7.0 basis set library
                            C. Haettig, Phys. Chem. Chem. Phys. 7, 59 (2005)
                       Ne : Obtained from the EMSL Basis Set Exchange (bse.pnl.gov) Feb. 2017
                            C. Haettig, Phys. Chem. Chem. Phys. 7, 59 (2005)
                            F. Weigend, A. Kohn, C. Hattig, J. Chem. Phys. 116, 3175 (2002)
                    Sc-Zn : Obtained from the EMSL Basis Set Exchange (bse.pnl.gov) Feb. 2017
                            J. G. Hill, J. A. Platts, J. Chem. Phys. 128, 044104 (2008)

================================================================================
                                        WARNINGS
                       Please study these warnings very carefully!
================================================================================


WARNING: MOInp is set but Guess=PModel. MOInp will be ignored!
         To read the initial guess from a file you must also specify
         'MORead' in the simple input or 'Guess MORead' in the %scf block


WARNING: MDCI localization with Augmented Hessian Foster-Boys
  ===> : Switching off randomization!

INFO   : the flag for use of the SHARK integral package has been found!

================================================================================
                                       INPUT FILE
================================================================================
NAME = CP.inp
|  1> #------------------------------------------------------
|  2> # After the Orca calculation you will get two inter-
|  3> # action energies at the end of the output file. The
|  4> # difference is the negative BSSE.
|  5> #
|  6> # The script will set the orbital guess PModel for 
|  7> # jobs 2-5 since Orca will try to use the .gbw-files of
|  8> # the earlier calculations which does not work for jobs
|  9> # 2 and 3 and does not help for jobs 4 and 5.
| 10> #------------------------------------------------------
| 11> #
| 12> #-------------------------
| 13> #     First the dimer
| 14> #-------------------------
| 15> 
| 16> %id "dimer"
| 17> ! DLPNO-CCSD(T) aug-cc-pVTZ aug-cc-pVTZ/C TightPNO
| 18> %maxcore 2000
| 19> %pal
| 20> nprocs 24
| 21> end
| 22> 
| 23> * xyz 0 1
| 24> H     0.391949    -3.317476    -4.063161 
| 25> O     1.296960    -3.058803    -4.337863 
| 26> H     1.189238    -2.429247    -5.067851 
| 27> H    -1.549127    -0.824046    -4.507469 
| 28> O    -1.025714    -0.642019    -5.313231 
| 29> H    -0.348056    -0.003518    -5.024863 
| 30> H     2.243736    -4.636255    -6.794103 
| 31> O     2.089702    -5.073894    -5.946862 
| 32> H     1.792765    -4.349585    -5.343095 
| 33> H     3.347702    -2.623525    -8.494349 
| 34> O     3.244860    -3.112393    -7.656713 
| 35> H     4.140686    -3.098972    -7.264682 
| 36> H     3.197332    -0.942297    -5.577649 
| 37> O     2.352537    -1.120134    -6.056423 
| 38> H     2.584882    -1.860878    -6.664366 
| 39> H     1.817536    -0.163729    -7.478120 
| 40> O     1.349103     0.253338    -8.231844 
| 41> H     1.327176    -0.443478    -8.908223 
| 42> H     4.979964    -1.411410    -9.335950 
| 43> O     4.035994    -1.153625    -9.492029 
| 44> H     3.950221    -1.072320    -10.445059 
| 45> H    -2.852999    -3.979955    -6.094915 
| 46> O    -2.064013    -4.518984    -5.905577 
| 47> H    -1.787290    -4.246468    -4.999070 
| 48> H    -0.437480     0.447868    -7.998563 
| 49> O    -1.382865     0.653247    -7.829830 
| 50> H    -1.563769     0.198241    -6.992196 
| 51> H    -0.780581    -3.427894    -6.759168 
| 52> O    -0.148399    -2.712146    -6.945719 
| 53> H    -0.511693    -1.957472    -6.441322 
| 54> O     0.759477    -2.177936    -9.478327 
| 55> H     0.348828    -2.422848    -8.616798 
| 56> H     0.031677    -2.184519    -10.105218 
| 57> *
| 58> 
| 59> #--------------------------
| 60> #   Now the fragments at
| 61> #      dimer-geometry 
| 62> #-------------------------
| 63> 
| 64> $new_job
| 65> %id "fragment"
| 66> %scf guess PModel end
| 67> ! DLPNO-CCSD(T) aug-cc-pVTZ aug-cc-pVTZ/C TightPNO
| 68> %maxcore 2000
| 69> %pal
| 70> nprocs 24
| 71> end
| 72> 
| 73> * xyz 0 1
| 74> H     0.391949    -3.317476    -4.063161 
| 75> O     1.296960    -3.058803    -4.337863 
| 76> H     1.189238    -2.429247    -5.067851 
| 77> H    -1.549127    -0.824046    -4.507469 
| 78> O    -1.025714    -0.642019    -5.313231 
| 79> H    -0.348056    -0.003518    -5.024863 
| 80> H     2.243736    -4.636255    -6.794103 
| 81> O     2.089702    -5.073894    -5.946862 
| 82> H     1.792765    -4.349585    -5.343095 
| 83> H     3.347702    -2.623525    -8.494349 
| 84> O     3.244860    -3.112393    -7.656713 
| 85> H     4.140686    -3.098972    -7.264682 
| 86> H     3.197332    -0.942297    -5.577649 
| 87> O     2.352537    -1.120134    -6.056423 
| 88> H     2.584882    -1.860878    -6.664366 
| 89> H     1.817536    -0.163729    -7.478120 
| 90> O     1.349103     0.253338    -8.231844 
| 91> H     1.327176    -0.443478    -8.908223 
| 92> H     4.979964    -1.411410    -9.335950 
| 93> O     4.035994    -1.153625    -9.492029 
| 94> H     3.950221    -1.072320    -10.445059 
| 95> H    -2.852999    -3.979955    -6.094915 
| 96> O    -2.064013    -4.518984    -5.905577 
| 97> H    -1.787290    -4.246468    -4.999070 
| 98> H    -0.437480     0.447868    -7.998563 
| 99> O    -1.382865     0.653247    -7.829830 
|100> H    -1.563769     0.198241    -6.992196 
|101> H    -0.780581    -3.427894    -6.759168 
|102> O    -0.148399    -2.712146    -6.945719 
|103> H    -0.511693    -1.957472    -6.441322 
|104> *
|105> 
|106> $new_job
|107> %id "fragment"
|108> %scf guess PModel end
|109> ! DLPNO-CCSD(T) aug-cc-pVTZ aug-cc-pVTZ/C TightPNO
|110> %maxcore 2000
|111> %pal
|112> nprocs 6
|113> end
|114> 
|115> * xyz 0 1
|116> O     0.759477    -2.177936    -9.478327 
|117> H     0.348828    -2.422848    -8.616798 
|118> H     0.031677    -2.184519    -10.105218 
|119> *
|120> 
|121> #--------------------------
|122> #   Now the fragments at
|123> #   dimer-geometry with  
|124> #     the dimer-basis
|125> #-------------------------
|126> 
|127> $new_job
|128> %id "ghost"
|129> %scf guess PModel end
|130> ! DLPNO-CCSD(T) aug-cc-pVTZ aug-cc-pVTZ/C TightPNO
|131> %maxcore 2000
|132> %pal
|133> nprocs 24
|134> end
|135> 
|136> * xyz 0 1
|137> H          0.391949    -3.317476    -4.063161 
|138> O          1.296960    -3.058803    -4.337863 
|139> H          1.189238    -2.429247    -5.067851 
|140> H         -1.549127    -0.824046    -4.507469 
|141> O         -1.025714    -0.642019    -5.313231 
|142> H         -0.348056    -0.003518    -5.024863 
|143> H          2.243736    -4.636255    -6.794103 
|144> O          2.089702    -5.073894    -5.946862 
|145> H          1.792765    -4.349585    -5.343095 
|146> H          3.347702    -2.623525    -8.494349 
|147> O          3.244860    -3.112393    -7.656713 
|148> H          4.140686    -3.098972    -7.264682 
|149> H          3.197332    -0.942297    -5.577649 
|150> O          2.352537    -1.120134    -6.056423 
|151> H          2.584882    -1.860878    -6.664366 
|152> H          1.817536    -0.163729    -7.478120 
|153> O          1.349103     0.253338    -8.231844 
|154> H          1.327176    -0.443478    -8.908223 
|155> H          4.979964    -1.411410    -9.335950 
|156> O          4.035994    -1.153625    -9.492029 
|157> H          3.950221    -1.072320    -10.445059 
|158> H         -2.852999    -3.979955    -6.094915 
|159> O         -2.064013    -4.518984    -5.905577 
|160> H         -1.787290    -4.246468    -4.999070 
|161> H         -0.437480     0.447868    -7.998563 
|162> O         -1.382865     0.653247    -7.829830 
|163> H         -1.563769     0.198241    -6.992196 
|164> H         -0.780581    -3.427894    -6.759168 
|165> O         -0.148399    -2.712146    -6.945719 
|166> H         -0.511693    -1.957472    -6.441322 
|167> O :        0.759477    -2.177936    -9.478327 
|168> H :        0.348828    -2.422848    -8.616798 
|169> H :        0.031677    -2.184519    -10.105218 
|170> *
|171> 
|172> $new_job
|173> %id "ghost"
|174> %scf guess PModel end
|175> ! DLPNO-CCSD(T) aug-cc-pVTZ aug-cc-pVTZ/C TightPNO
|176> %maxcore 2000
|177> %pal
|178> nprocs 6
|179> end
|180> 
|181> * xyz 0 1
|182> H :        0.391949    -3.317476    -4.063161 
|183> O :        1.296960    -3.058803    -4.337863 
|184> H :        1.189238    -2.429247    -5.067851 
|185> H :       -1.549127    -0.824046    -4.507469 
|186> O :       -1.025714    -0.642019    -5.313231 
|187> H :       -0.348056    -0.003518    -5.024863 
|188> H :        2.243736    -4.636255    -6.794103 
|189> O :        2.089702    -5.073894    -5.946862 
|190> H :        1.792765    -4.349585    -5.343095 
|191> H :        3.347702    -2.623525    -8.494349 
|192> O :        3.244860    -3.112393    -7.656713 
|193> H :        4.140686    -3.098972    -7.264682 
|194> H :        3.197332    -0.942297    -5.577649 
|195> O :        2.352537    -1.120134    -6.056423 
|196> H :        2.584882    -1.860878    -6.664366 
|197> H :        1.817536    -0.163729    -7.478120 
|198> O :        1.349103     0.253338    -8.231844 
|199> H :        1.327176    -0.443478    -8.908223 
|200> H :        4.979964    -1.411410    -9.335950 
|201> O :        4.035994    -1.153625    -9.492029 
|202> H :        3.950221    -1.072320    -10.445059 
|203> H :       -2.852999    -3.979955    -6.094915 
|204> O :       -2.064013    -4.518984    -5.905577 
|205> H :       -1.787290    -4.246468    -4.999070 
|206> H :       -0.437480     0.447868    -7.998563 
|207> O :       -1.382865     0.653247    -7.829830 
|208> H :       -1.563769     0.198241    -6.992196 
|209> H :       -0.780581    -3.427894    -6.759168 
|210> O :       -0.148399    -2.712146    -6.945719 
|211> H :       -0.511693    -1.957472    -6.441322 
|212> O          0.759477    -2.177936    -9.478327 
|213> H          0.348828    -2.422848    -8.616798 
|214> H          0.031677    -2.184519    -10.105218 
|215> *
|216> 
|217> 
|218>                          ****END OF INPUT****
================================================================================


                 $$$$$$$$$$$$$$$$$$$$$$$$$$$$$$$$$$$$$$$$$$$$$$ 
                 $ THERE ARE  5 JOBS TO BE PROCESSED THIS RUN $
                 $$$$$$$$$$$$$$$$$$$$$$$$$$$$$$$$$$$$$$$$$$$$$$ 




                 $$$$$$$$$$$$$$$$  JOB NUMBER  1 $$$$$$$$$$$$$$


                       ****************************
                       * Single Point Calculation *
                       ****************************

---------------------------------
CARTESIAN COORDINATES (ANGSTROEM)
---------------------------------
  H      0.391949   -3.317476   -4.063161
  O      1.296960   -3.058803   -4.337863
  H      1.189238   -2.429247   -5.067851
  H     -1.549127   -0.824046   -4.507469
  O     -1.025714   -0.642019   -5.313231
  H     -0.348056   -0.003518   -5.024863
  H      2.243736   -4.636255   -6.794103
  O      2.089702   -5.073894   -5.946862
  H      1.792765   -4.349585   -5.343095
  H      3.347702   -2.623525   -8.494349
  O      3.244860   -3.112393   -7.656713
  H      4.140686   -3.098972   -7.264682
  H      3.197332   -0.942297   -5.577649
  O      2.352537   -1.120134   -6.056423
  H      2.584882   -1.860878   -6.664366
  H      1.817536   -0.163729   -7.478120
  O      1.349103    0.253338   -8.231844
  H      1.327176   -0.443478   -8.908223
  H      4.979964   -1.411410   -9.335950
  O      4.035994   -1.153625   -9.492029
  H      3.950221   -1.072320  -10.445059
  H     -2.852999   -3.979955   -6.094915
  O     -2.064013   -4.518984   -5.905577
  H     -1.787290   -4.246468   -4.999070
  H     -0.437480    0.447868   -7.998563
  O     -1.382865    0.653247   -7.829830
  H     -1.563769    0.198241   -6.992196
  H     -0.780581   -3.427894   -6.759168
  O     -0.148399   -2.712146   -6.945719
  H     -0.511693   -1.957472   -6.441322
  O      0.759477   -2.177936   -9.478327
  H      0.348828   -2.422848   -8.616798
  H      0.031677   -2.184519  -10.105218

----------------------------
CARTESIAN COORDINATES (A.U.)
----------------------------
  NO LB      ZA    FRAG     MASS         X           Y           Z
   0 H     1.0000    0     1.008    0.740676   -6.269121   -7.678262
   1 O     8.0000    0    15.999    2.450899   -5.780300   -8.197373
   2 H     1.0000    0     1.008    2.247334   -4.590612   -9.576850
   3 H     1.0000    0     1.008   -2.927426   -1.557221   -8.517882
   4 O     8.0000    0    15.999   -1.938319   -1.213240  -10.040551
   5 H     1.0000    0     1.008   -0.657731   -0.006648   -9.495615
   6 H     1.0000    0     1.008    4.240047   -8.761252  -12.838994
   7 O     8.0000    0    15.999    3.948964   -9.588270  -11.237941
   8 H     1.0000    0     1.008    3.387835   -8.219524  -10.096986
   9 H     1.0000    0     1.008    6.326240   -4.957744  -16.051993
  10 O     8.0000    0    15.999    6.131897   -5.881570  -14.469091
  11 H     1.0000    0     1.008    7.824763   -5.856208  -13.728259
  12 H     1.0000    0     1.008    6.042082   -1.780683  -10.540229
  13 O     8.0000    0    15.999    4.445651   -2.116746  -11.444981
  14 H     1.0000    0     1.008    4.884719   -3.516550  -12.593827
  15 H     1.0000    0     1.008    3.434645   -0.309403  -14.131599
  16 O     8.0000    0    15.999    2.549435    0.478739  -15.555931
  17 H     1.0000    0     1.008    2.507999   -0.838052  -16.834102
  18 H     1.0000    0     1.008    9.410768   -2.667178  -17.642389
  19 O     8.0000    0    15.999    7.626923   -2.180035  -17.937335
  20 H     1.0000    0     1.008    7.464836   -2.026391  -19.738301
  21 H     1.0000    0     1.008   -5.391387   -7.521025  -11.517720
  22 O     8.0000    0    15.999   -3.900419   -8.539642  -11.159923
  23 H     1.0000    0     1.008   -3.377489   -8.024662   -9.446873
  24 H     1.0000    0     1.008   -0.826717    0.846348  -15.115094
  25 O     8.0000    0    15.999   -2.613236    1.234458  -14.796234
  26 H     1.0000    0     1.008   -2.955095    0.374621  -13.213336
  27 H     1.0000    0     1.008   -1.475084   -6.477781  -12.772976
  28 O     8.0000    0    15.999   -0.280433   -5.125213  -13.125507
  29 H     1.0000    0     1.008   -0.966960   -3.699086  -12.172335
  30 O     8.0000    0    15.999    1.435204   -4.115703  -17.911442
  31 H     1.0000    0     1.008    0.659189   -4.578519  -16.283388
  32 H     1.0000    0     1.008    0.059861   -4.128143  -19.096095

--------------------------------
INTERNAL COORDINATES (ANGSTROEM)
--------------------------------
 H      0   0   0     0.000000000000     0.00000000     0.00000000
 O      1   0   0     0.980519158331     0.00000000     0.00000000
 H      2   1   0     0.969962507814   106.23447717     0.00000000
 H      1   2   3     3.190983986412   108.43957699   327.47155152
 O      4   1   2     0.977930160053    86.24977971    37.27550872
 H      5   4   1     0.974710210980   104.49389104   266.19389570
 H      3   2   1     2.993792964046    85.20207517   250.74276783
 O      7   3   2     0.965956354893    76.82552925    10.00415324
 H      8   7   3     0.988599868369   104.57374290   356.62003216
 H      7   3   2     2.856686794623    87.70195829   210.38195009
 O     10   7   3     0.975296091904    25.16481656    62.05075901
 H     11  10   7     0.977943071185   103.93490332   146.22120637
 H      3   2   1     2.550167801565   116.19624230   160.72395477
 O     13   3   2     0.987182421678    47.00414882   168.97158671
 H     14  13   3     0.986042881324   103.45632286   267.62600399
 H     14  13   3     1.795037312658   122.90125169   169.98491654
 O     16  14  13     0.980547921396   167.90750340   188.71762279
 H     17  16  14     0.971350545800   103.94021462   287.03100659
 H     10   7   3     2.200407747003   154.47908436   105.06842038
 O     19  10   7     0.990905203017    59.79383892   192.91649014
 H     20  19  10     0.960329990917   105.27339610   233.79169877
 H      4   1   2     3.765611319770    67.32191608   128.47009604
 O     22   4   1     0.974115008241    95.81785730   354.09604245
 H     23  22   4     0.986202580626   104.65646797    39.57298260
 H     17  16  18     1.812219843659   114.68794808   106.13127973
 O     25  17  16     0.982040812367   173.52550388    90.98575735
 H     26  25  17     0.970251222729   103.28234786   261.44744540
 H     23  22   4     1.888463047561    98.21529850   303.50125177
 O     28  23  22     0.973011077136   162.40647939    79.54586471
 H     29  28  23     0.977717602542   103.14777392   330.65642391
 O     18  17  16     1.911974183712   149.89358012    62.70957354
 H     31  18  17     0.985315536661    95.07818968   354.95513847
 H     31  18  17     0.960587581520   115.19959127   103.78109663

---------------------------
INTERNAL COORDINATES (A.U.)
---------------------------
 H      0   0   0     0.000000000000     0.00000000     0.00000000
 O      1   0   0     1.852912678308     0.00000000     0.00000000
 H      2   1   0     1.832963499939   106.23447717     0.00000000
 H      1   2   3     6.030085832048   108.43957699   327.47155152
 O      4   1   2     1.848020180603    86.24977971    37.27550872
 H      5   4   1     1.841935358689   104.49389104   266.19389570
 H      3   2   1     5.657448803708    85.20207517   250.74276783
 O      7   3   2     1.825392968068    76.82552925    10.00415324
 H      8   7   3     1.868183007248   104.57374290   356.62003216
 H      7   3   2     5.398355692226    87.70195829   210.38195009
 O     10   7   3     1.843042513183    25.16481656    62.05075901
 H     11  10   7     1.848044579105   103.93490332   146.22120637
 H      3   2   1     4.819118740502   116.19624230   160.72395477
 O     13   3   2     1.865504421193    47.00414882   168.97158671
 H     14  13   3     1.863351002005   103.45632286   267.62600399
 H     14  13   3     3.392128921094   122.90125169   169.98491654
 O     16  14  13     1.852967032624   167.90750340   188.71762279
 H     17  16  14     1.835586511597   103.94021462   287.03100659
 H     10   7   3     4.158168024794   154.47908436   105.06842038
 O     19  10   7     1.872539458380    59.79383892   192.91649014
 H     20  19  10     1.814760681024   105.27339610   233.79169877
 H      4   1   2     7.115974121159    67.32191608   128.47009604
 O     22   4   1     1.840810588519    95.81785730   354.09604245
 H     23  22   4     1.863652789950   104.65646797    39.57298260
 H     17  16  18     3.424599198972   114.68794808   106.13127973
 O     25  17  16     1.855788187708   173.52550388    90.98575735
 H     26  25  17     1.833509092061   103.28234786   261.44744540
 H     23  22   4     3.568677973921    98.21529850   303.50125177
 O     28  23  22     1.838724461058   162.40647939    79.54586471
 H     29  28  23     1.847618505119   103.14777392   330.65642391
 O     18  17  16     3.613107582343   149.89358012    62.70957354
 H     31  18  17     1.861976519787    95.07818968   354.95513847
 H     31  18  17     1.815247456718   115.19959127   103.78109663

---------------------
BASIS SET INFORMATION
---------------------
There are 2 groups of distinct atoms

 Group   1 Type H   : 6s3p2d contracted to 4s3p2d pattern {3111/111/11}
 Group   2 Type O   : 19s6p3d2f contracted to 5s4p3d2f pattern {88111/3111/111/11}

Atom   0H    basis set group =>   1
Atom   1O    basis set group =>   2
Atom   2H    basis set group =>   1
Atom   3H    basis set group =>   1
Atom   4O    basis set group =>   2
Atom   5H    basis set group =>   1
Atom   6H    basis set group =>   1
Atom   7O    basis set group =>   2
Atom   8H    basis set group =>   1
Atom   9H    basis set group =>   1
Atom  10O    basis set group =>   2
Atom  11H    basis set group =>   1
Atom  12H    basis set group =>   1
Atom  13O    basis set group =>   2
Atom  14H    basis set group =>   1
Atom  15H    basis set group =>   1
Atom  16O    basis set group =>   2
Atom  17H    basis set group =>   1
Atom  18H    basis set group =>   1
Atom  19O    basis set group =>   2
Atom  20H    basis set group =>   1
Atom  21H    basis set group =>   1
Atom  22O    basis set group =>   2
Atom  23H    basis set group =>   1
Atom  24H    basis set group =>   1
Atom  25O    basis set group =>   2
Atom  26H    basis set group =>   1
Atom  27H    basis set group =>   1
Atom  28O    basis set group =>   2
Atom  29H    basis set group =>   1
Atom  30O    basis set group =>   2
Atom  31H    basis set group =>   1
Atom  32H    basis set group =>   1
---------------------------------
AUXILIARY/C BASIS SET INFORMATION
---------------------------------
There are 2 groups of distinct atoms

 Group   1 Type H   : 5s4p3d2f contracted to 5s4p3d2f pattern {11111/1111/111/11}
 Group   2 Type O   : 9s7p6d4f2g contracted to 9s7p6d4f2g pattern {111111111/1111111/111111/1111/11}

Atom   0H    basis set group =>   1
Atom   1O    basis set group =>   2
Atom   2H    basis set group =>   1
Atom   3H    basis set group =>   1
Atom   4O    basis set group =>   2
Atom   5H    basis set group =>   1
Atom   6H    basis set group =>   1
Atom   7O    basis set group =>   2
Atom   8H    basis set group =>   1
Atom   9H    basis set group =>   1
Atom  10O    basis set group =>   2
Atom  11H    basis set group =>   1
Atom  12H    basis set group =>   1
Atom  13O    basis set group =>   2
Atom  14H    basis set group =>   1
Atom  15H    basis set group =>   1
Atom  16O    basis set group =>   2
Atom  17H    basis set group =>   1
Atom  18H    basis set group =>   1
Atom  19O    basis set group =>   2
Atom  20H    basis set group =>   1
Atom  21H    basis set group =>   1
Atom  22O    basis set group =>   2
Atom  23H    basis set group =>   1
Atom  24H    basis set group =>   1
Atom  25O    basis set group =>   2
Atom  26H    basis set group =>   1
Atom  27H    basis set group =>   1
Atom  28O    basis set group =>   2
Atom  29H    basis set group =>   1
Atom  30O    basis set group =>   2
Atom  31H    basis set group =>   1
Atom  32H    basis set group =>   1


           ************************************************************
           *        Program running with 24 parallel MPI-processes    *
           *              working on a common directory               *
           ************************************************************
------------------------------------------------------------------------------
                           ORCA GTO INTEGRAL CALCULATION
------------------------------------------------------------------------------
------------------------------------------------------------------------------
                   ___                                                        
                  /   \      - P O W E R E D   B Y -                         
                 /     \                                                     
                 |  |  |   _    _      __       _____    __    __             
                 |  |  |  | |  | |    /  \     |  _  \  |  |  /  |          
                  \  \/   | |  | |   /    \    | | | |  |  | /  /          
                 / \  \   | |__| |  /  /\  \   | |_| |  |  |/  /          
                |  |  |   |  __  | /  /__\  \  |    /   |      \           
                |  |  |   | |  | | |   __   |  |    \   |  |\   \          
                \     /   | |  | | |  |  |  |  | |\  \  |  | \   \       
                 \___/    |_|  |_| |__|  |__|  |_| \__\ |__|  \__/        
                                                                              
                      - O R C A' S   B I G   F R I E N D -                    
                                      &                                       
                       - I N T E G R A L  F E E D E R -                       
                                                                              
 v1 FN, 2020, v2 2021                                                         
------------------------------------------------------------------------------


Reading SHARK input file CP.SHARKINP.tmp ... ok
----------------------
SHARK INTEGRAL PACKAGE
----------------------

Number of atoms                             ...     33
Number of basis functions                   ...   1012
Number of shells                            ...    352
Maximum angular momentum                    ...      3
Integral batch strategy                     ... SHARK/LIBINT Hybrid
RI-J (if used) integral strategy            ... SPLIT-RIJ (Revised 2003 algorithm where possible)
Printlevel                                  ...      1
Contraction scheme used                     ... SEGMENTED contraction
Coulomb Range Separation                    ... NOT USED
Exchange Range Separation                   ... NOT USED
Finite Nucleus Model                        ... NOT USED
Auxiliary Coulomb fitting basis             ... NOT available
Auxiliary J/K fitting basis                 ... NOT available
Auxiliary Correlation fitting basis         ... AVAILABLE
   # of basis functions in Aux-C            ...   2178
   # of shells in Aux-C                     ...    616
   Maximum angular momentum in Aux-C        ...      4
Auxiliary 'external' fitting basis          ... NOT available
Integral threshold                          ...     1.000000e-10
Primitive cut-off                           ...     1.000000e-11
Primitive pair pre-selection threshold      ...     1.000000e-11

Calculating pre-screening integrals         ... done (  0.6 sec) Dimension = 352
Organizing shell pair data                  ... done (  1.0 sec)
Shell pair information
Total number of shell pairs                 ...     62128
Shell pairs after pre-screening             ...     52707
Total number of primitive shell pairs       ...    164593
Primitive shell pairs kept                  ...     98785
          la=0 lb=0:   9005 shell pairs
          la=1 lb=0:  13620 shell pairs
          la=1 lb=1:   5213 shell pairs
          la=2 lb=0:   9358 shell pairs
          la=2 lb=1:   7096 shell pairs
          la=2 lb=2:   2463 shell pairs
          la=3 lb=0:   2555 shell pairs
          la=3 lb=1:   1924 shell pairs
          la=3 lb=2:   1295 shell pairs
          la=3 lb=3:    178 shell pairs

Calculating one electron integrals          ... done (  0.2 sec)
Calculating RI/C V-Matrix + Cholesky decomp.... done (  1.1 sec)
Calculating Nuclear repulsion               ... done (  0.0 sec) ENN=    843.649947375543 Eh

SHARK setup successfully completed in   3.2 seconds

Maximum memory used throughout the entire GTOINT-calculation: 79.2 MB


           ************************************************************
           *        Program running with 24 parallel MPI-processes    *
           *              working on a common directory               *
           ************************************************************
-------------------------------------------------------------------------------
                                 ORCA SCF
-------------------------------------------------------------------------------

------------
SCF SETTINGS
------------
Hamiltonian:
 Ab initio Hamiltonian  Method          .... Hartree-Fock(GTOs)


General Settings:
 Integral files         IntName         .... CP
 Hartree-Fock type      HFTyp           .... RHF
 Total Charge           Charge          ....    0
 Multiplicity           Mult            ....    1
 Number of Electrons    NEL             ....  110
 Basis Dimension        Dim             .... 1012
 Nuclear Repulsion      ENuc            ....    843.6499473755 Eh

Convergence Acceleration:
 DIIS                   CNVDIIS         .... on
   Start iteration      DIISMaxIt       ....    12
   Startup error        DIISStart       ....  0.200000
   # of expansion vecs  DIISMaxEq       ....     5
   Bias factor          DIISBfac        ....   1.050
   Max. coefficient     DIISMaxC        ....  10.000
 Trust-Rad. Augm. Hess. CNVTRAH         .... auto
   Auto Start mean grad. ratio tolernc. ....  1.125000
   Auto Start start iteration           ....    20
   Auto Start num. interpolation iter.  ....    10
   Max. Number of Micro iterations      ....    16
   Max. Number of Macro iterations      .... Maxiter - #DIIS iter
   Number of Davidson start vectors     ....     2
   Converg. threshold I  (grad. norm)   ....   5.000e-05
   Converg. threshold II (energy diff.) ....   1.000e-06
   Grad. Scal. Fac. for Micro threshold ....   0.100
   Minimum threshold for Micro iter.    ....   0.010
   NR start threshold (gradient norm)   ....   0.001
   Initial trust radius                 ....   0.400
   Minimum AH scaling param. (alpha)    ....   1.000
   Maximum AH scaling param. (alpha)    .... 1000.000
   Orbital update algorithm             .... Taylor
   White noise on init. David. guess    .... on
   Maximum white noise                  ....   0.010
   Quad. conv. algorithm                .... NR
 SOSCF                  CNVSOSCF        .... on
   Start iteration      SOSCFMaxIt      ....   150
   Startup grad/error   SOSCFStart      ....  0.003300
 Level Shifting         CNVShift        .... on
   Level shift para.    LevelShift      ....    0.2500
   Turn off err/grad.   ShiftErr        ....    0.0010
 Zerner damping         CNVZerner       .... off
 Static damping         CNVDamp         .... on
   Fraction old density DampFac         ....    0.7000
   Max. Damping (<1)    DampMax         ....    0.9800
   Min. Damping (>=0)   DampMin         ....    0.0000
   Turn off err/grad.   DampErr         ....    0.1000
 Fernandez-Rico         CNVRico         .... off

SCF Procedure:
 Maximum # iterations   MaxIter         ....   125
 SCF integral mode      SCFMode         .... Direct
   Integral package                     .... SHARK and LIBINT hybrid scheme
 Reset frequency        DirectResetFreq ....    20
 Integral Threshold     Thresh          ....  1.000e-10 Eh
 Primitive CutOff       TCut            ....  1.000e-11 Eh

Convergence Tolerance:
 Convergence Check Mode ConvCheckMode   .... Total+1el-Energy
 Convergence forced     ConvForced      .... 1
 Energy Change          TolE            ....  1.000e-06 Eh
 1-El. energy change                    ....  1.000e-03 Eh
 Orbital Gradient       TolG            ....  5.000e-05
 Orbital Rotation angle TolX            ....  5.000e-05
 DIIS Error             TolErr          ....  1.000e-06


Diagonalization of the overlap matrix:
Smallest eigenvalue                        ... 6.504e-06
Time for diagonalization                   ...    0.358 sec
Threshold for overlap eigenvalues          ... 1.000e-08
Number of eigenvalues below threshold      ... 0
Time for construction of square roots      ...    0.210 sec
Total time needed                          ...    0.574 sec

Time for model grid setup =    0.347 sec

------------------------------
INITIAL GUESS: MODEL POTENTIAL
------------------------------
Loading Hartree-Fock densities                     ... done
Calculating cut-offs                               ... done
Initializing the effective Hamiltonian             ... done
Setting up the integral package (SHARK)            ... done
Starting the Coulomb interaction                   ... done (   0.5 sec)
Reading the grid                                   ... done
Mapping shells                                     ... done
Starting the XC term evaluation                    ... done (   0.2 sec)
Transforming the Hamiltonian                       ... done (   0.1 sec)
Diagonalizing the Hamiltonian                      ... done (   0.2 sec)
Back transforming the eigenvectors                 ... done (   0.0 sec)
Now organizing SCF variables                       ... done
                      ------------------
                      INITIAL GUESS DONE (   1.5 sec)
                      ------------------
--------------
SCF ITERATIONS
--------------
ITER       Energy         Delta-E        Max-DP      RMS-DP      [F,P]     Damp
               ***  Starting incremental Fock matrix formation  ***
  0   -835.7288636371   0.000000000000 0.07854126  0.00037664  0.3795450 0.7000
  1   -836.0969358694  -0.368072232312 0.04346417  0.00026532  0.2222211 0.7000
                               ***Turning on DIIS***
  2   -836.2933549889  -0.196419119414 0.02477661  0.00016227  0.1178276 0.7000
  3   -837.9048593332  -1.611504344384 0.04926126  0.00036780  0.0847404 0.0000
  4   -836.4123740772   1.492485256083 0.01307583  0.00006256  0.0133847 0.0000
  5   -836.6575456749  -0.245171597699 0.01043185  0.00003591  0.0039868 0.0000
                      *** Initiating the SOSCF procedure ***
                           *** Shutting down DIIS ***
                      *** Re-Reading the Fockian *** 
                      *** Removing any level shift *** 
ITER      Energy       Delta-E        Grad      Rot      Max-DP    RMS-DP
  6   -836.66092958  -0.0033839031  0.000498  0.000498  0.001955  0.000016
               *** Restarting incremental Fock matrix formation ***
  7   -836.67692311  -0.0159935334  0.000163  0.000222  0.000486  0.000005
  8   -836.67693232  -0.0000092062  0.000053  0.000158  0.000411  0.000004
  9   -836.67693448  -0.0000021601  0.000030  0.000020  0.000246  0.000001
                  ***Gradient check signals convergence***
              ***Rediagonalizing the Fockian in SOSCF/NRSCF***

               *****************************************************
               *                     SUCCESS                       *
               *           SCF CONVERGED AFTER  10 CYCLES          *
               *****************************************************


----------------
TOTAL SCF ENERGY
----------------

Total Energy       :         -836.67693472 Eh          -22767.13685 eV

Components:
Nuclear Repulsion  :          843.64994738 Eh           22956.88217 eV
Electronic Energy  :        -1680.32688209 Eh          -45724.01903 eV
One Electron Energy:        -2839.14111060 Eh          -77256.95729 eV
Two Electron Energy:         1158.81422851 Eh           31532.93826 eV

Virial components:
Potential Energy   :        -1672.05600304 Eh          -45498.95697 eV
Kinetic Energy     :          835.37906833 Eh           22731.82011 eV
Virial Ratio       :            2.00155363


---------------
SCF CONVERGENCE
---------------

  Last Energy change         ...   -2.4055e-07  Tolerance :   1.0000e-06
  Last MAX-Density change    ...    2.0070e-04  Tolerance :   1.0000e-05
  Last RMS-Density change    ...    1.5270e-06  Tolerance :   1.0000e-06
  Last Orbital Gradient      ...    1.1302e-05  Tolerance :   5.0000e-05
  Last Orbital Rotation      ...    8.3992e-06  Tolerance :   5.0000e-05

             **** THE GBW FILE WAS UPDATED (CP.gbw) ****
             **** DENSITY CP.scfp WAS UPDATED ****
             **** ENERGY FILE WAS UPDATED (CP.en.tmp) ****
             **** THE GBW FILE WAS UPDATED (CP.gbw) ****
             **** DENSITY CP.scfp WAS UPDATED ****
----------------
ORBITAL ENERGIES
----------------

  NO   OCC          E(Eh)            E(eV) 
   0   2.0000     -20.622180      -561.1580 
   1   2.0000     -20.608691      -560.7910 
   2   2.0000     -20.600713      -560.5739 
   3   2.0000     -20.584521      -560.1333 
   4   2.0000     -20.574355      -559.8567 
   5   2.0000     -20.569433      -559.7227 
   6   2.0000     -20.553334      -559.2846 
   7   2.0000     -20.540862      -558.9453 
   8   2.0000     -20.514239      -558.2208 
   9   2.0000     -20.499105      -557.8090 
  10   2.0000     -20.492428      -557.6273 
  11   2.0000      -1.404339       -38.2140 
  12   2.0000      -1.384752       -37.6810 
  13   2.0000      -1.383670       -37.6516 
  14   2.0000      -1.372322       -37.3428 
  15   2.0000      -1.358760       -36.9737 
  16   2.0000      -1.349393       -36.7189 
  17   2.0000      -1.344780       -36.5933 
  18   2.0000      -1.326043       -36.0835 
  19   2.0000      -1.302901       -35.4537 
  20   2.0000      -1.280100       -34.8333 
  21   2.0000      -1.274995       -34.6944 
  22   2.0000      -0.763603       -20.7787 
  23   2.0000      -0.746384       -20.3101 
  24   2.0000      -0.744955       -20.2713 
  25   2.0000      -0.732058       -19.9203 
  26   2.0000      -0.730111       -19.8673 
  27   2.0000      -0.721242       -19.6260 
  28   2.0000      -0.718515       -19.5518 
  29   2.0000      -0.703123       -19.1330 
  30   2.0000      -0.679957       -18.5026 
  31   2.0000      -0.666829       -18.1453 
  32   2.0000      -0.663557       -18.0563 
  33   2.0000      -0.637694       -17.3525 
  34   2.0000      -0.629112       -17.1190 
  35   2.0000      -0.617668       -16.8076 
  36   2.0000      -0.614873       -16.7316 
  37   2.0000      -0.602778       -16.4024 
  38   2.0000      -0.598746       -16.2927 
  39   2.0000      -0.586958       -15.9719 
  40   2.0000      -0.570841       -15.5334 
  41   2.0000      -0.564535       -15.3618 
  42   2.0000      -0.551202       -14.9990 
  43   2.0000      -0.544472       -14.8158 
  44   2.0000      -0.534014       -14.5313 
  45   2.0000      -0.532818       -14.4987 
  46   2.0000      -0.524061       -14.2604 
  47   2.0000      -0.519114       -14.1258 
  48   2.0000      -0.507906       -13.8208 
  49   2.0000      -0.497618       -13.5409 
  50   2.0000      -0.484552       -13.1853 
  51   2.0000      -0.483399       -13.1540 
  52   2.0000      -0.456220       -12.4144 
  53   2.0000      -0.445338       -12.1183 
  54   2.0000      -0.439590       -11.9619 
  55   0.0000       0.005534         0.1506 
  56   0.0000       0.014454         0.3933 
  57   0.0000       0.030161         0.8207 
  58   0.0000       0.036757         1.0002 
  59   0.0000       0.040174         1.0932 
  60   0.0000       0.044206         1.2029 
  61   0.0000       0.051611         1.4044 
  62   0.0000       0.061783         1.6812 
  63   0.0000       0.063292         1.7223 
  64   0.0000       0.067411         1.8343 
  65   0.0000       0.069827         1.9001 
  66   0.0000       0.076184         2.0731 
  67   0.0000       0.077413         2.1065 
  68   0.0000       0.082373         2.2415 
  69   0.0000       0.084755         2.3063 
  70   0.0000       0.088394         2.4053 
  71   0.0000       0.092885         2.5275 
  72   0.0000       0.098607         2.6832 
  73   0.0000       0.102431         2.7873 
  74   0.0000       0.105693         2.8760 
  75   0.0000       0.110606         3.0098 
  76   0.0000       0.116960         3.1826 
  77   0.0000       0.132017         3.5924 
  78   0.0000       0.134445         3.6584 
  79   0.0000       0.141389         3.8474 
  80   0.0000       0.148786         4.0487 
  81   0.0000       0.158512         4.3133 
  82   0.0000       0.164834         4.4854 
  83   0.0000       0.169320         4.6074 
  84   0.0000       0.175439         4.7739 
  85   0.0000       0.177263         4.8236 
  86   0.0000       0.179840         4.8937 
  87   0.0000       0.184804         5.0288 
  88   0.0000       0.193511         5.2657 
  89   0.0000       0.196551         5.3484 
  90   0.0000       0.199624         5.4321 
  91   0.0000       0.201880         5.4934 
  92   0.0000       0.204629         5.5682 
  93   0.0000       0.205689         5.5971 
  94   0.0000       0.210450         5.7266 
  95   0.0000       0.213381         5.8064 
  96   0.0000       0.217260         5.9119 
  97   0.0000       0.220223         5.9926 
  98   0.0000       0.224506         6.1091 
  99   0.0000       0.230224         6.2647 
 100   0.0000       0.233043         6.3414 
 101   0.0000       0.237016         6.4495 
 102   0.0000       0.238466         6.4890 
 103   0.0000       0.239724         6.5232 
 104   0.0000       0.245754         6.6873 
 105   0.0000       0.250500         6.8164 
 106   0.0000       0.251544         6.8449 
 107   0.0000       0.255674         6.9572 
 108   0.0000       0.257467         7.0060 
 109   0.0000       0.260888         7.0991 
 110   0.0000       0.267099         7.2681 
 111   0.0000       0.275001         7.4832 
 112   0.0000       0.275771         7.5041 
 113   0.0000       0.280283         7.6269 
 114   0.0000       0.287340         7.8189 
 115   0.0000       0.289944         7.8898 
 116   0.0000       0.291179         7.9234 
 117   0.0000       0.294448         8.0123 
 118   0.0000       0.304866         8.2958 
 119   0.0000       0.310115         8.4387 
 120   0.0000       0.313758         8.5378 
 121   0.0000       0.316473         8.6117 
 122   0.0000       0.323544         8.8041 
 123   0.0000       0.328752         8.9458 
 124   0.0000       0.330717         8.9993 
 125   0.0000       0.342448         9.3185 
 126   0.0000       0.345002         9.3880 
 127   0.0000       0.354169         9.6374 
 128   0.0000       0.360118         9.7993 
 129   0.0000       0.363633         9.8950 
 130   0.0000       0.369705        10.0602 
 131   0.0000       0.373977        10.1764 
 132   0.0000       0.380419        10.3517 
 133   0.0000       0.385742        10.4966 
 134   0.0000       0.389654        10.6030 
 135   0.0000       0.392612        10.6835 
 136   0.0000       0.393632        10.7113 
 137   0.0000       0.398363        10.8400 
 138   0.0000       0.402734        10.9590 
 139   0.0000       0.406793        11.0694 
 140   0.0000       0.410597        11.1729 
 141   0.0000       0.411296        11.1919 
 142   0.0000       0.413965        11.2646 
 143   0.0000       0.419611        11.4182 
 144   0.0000       0.424479        11.5507 
 145   0.0000       0.426086        11.5944 
 146   0.0000       0.429654        11.6915 
 147   0.0000       0.433808        11.8045 
 148   0.0000       0.436807        11.8861 
 149   0.0000       0.437547        11.9063 
 150   0.0000       0.440665        11.9911 
 151   0.0000       0.442970        12.0538 
 152   0.0000       0.446223        12.1423 
 153   0.0000       0.447678        12.1819 
 154   0.0000       0.450519        12.2592 
 155   0.0000       0.455325        12.3900 
 156   0.0000       0.464892        12.6504 
 157   0.0000       0.465395        12.6640 
 158   0.0000       0.469873        12.7859 
 159   0.0000       0.471963        12.8428 
 160   0.0000       0.475154        12.9296 
 161   0.0000       0.475775        12.9465 
 162   0.0000       0.479918        13.0592 
 163   0.0000       0.484597        13.1865 
 164   0.0000       0.485136        13.2012 
 165   0.0000       0.487735        13.2719 
 166   0.0000       0.491166        13.3653 
 167   0.0000       0.494785        13.4638 
 168   0.0000       0.498090        13.5537 
 169   0.0000       0.499898        13.6029 
 170   0.0000       0.501028        13.6337 
 171   0.0000       0.509026        13.8513 
 172   0.0000       0.514927        14.0119 
 173   0.0000       0.517120        14.0715 
 174   0.0000       0.523697        14.2505 
 175   0.0000       0.526427        14.3248 
 176   0.0000       0.529327        14.4037 
 177   0.0000       0.531726        14.4690 
 178   0.0000       0.535664        14.5762 
 179   0.0000       0.539210        14.6726 
 180   0.0000       0.543063        14.7775 
 181   0.0000       0.545751        14.8506 
 182   0.0000       0.549462        14.9516 
 183   0.0000       0.552778        15.0419 
 184   0.0000       0.556551        15.1445 
 185   0.0000       0.559927        15.2364 
 186   0.0000       0.565738        15.3945 
 187   0.0000       0.569871        15.5070 
 188   0.0000       0.573119        15.5954 
 189   0.0000       0.579255        15.7623 
 190   0.0000       0.581525        15.8241 
 191   0.0000       0.586982        15.9726 
 192   0.0000       0.591348        16.0914 
 193   0.0000       0.593471        16.1492 
 194   0.0000       0.605804        16.4848 
 195   0.0000       0.614010        16.7081 
 196   0.0000       0.618119        16.8199 
 197   0.0000       0.625292        17.0151 
 198   0.0000       0.629341        17.1252 
 199   0.0000       0.638845        17.3838 
 200   0.0000       0.646188        17.5837 
 201   0.0000       0.647964        17.6320 
 202   0.0000       0.655529        17.8379 
 203   0.0000       0.670843        18.2546 
 204   0.0000       0.670981        18.2583 
 205   0.0000       0.677156        18.4264 
 206   0.0000       0.683863        18.6089 
 207   0.0000       0.690109        18.7788 
 208   0.0000       0.696955        18.9651 
 209   0.0000       0.699157        19.0250 
 210   0.0000       0.705133        19.1876 
 211   0.0000       0.710667        19.3382 
 212   0.0000       0.712043        19.3757 
 213   0.0000       0.715736        19.4762 
 214   0.0000       0.722877        19.6705 
 215   0.0000       0.731206        19.8971 
 216   0.0000       0.735825        20.0228 
 217   0.0000       0.744139        20.2491 
 218   0.0000       0.754708        20.5366 
 219   0.0000       0.761990        20.7348 
 220   0.0000       0.763844        20.7852 
 221   0.0000       0.767306        20.8795 
 222   0.0000       0.780439        21.2368 
 223   0.0000       0.783097        21.3091 
 224   0.0000       0.789906        21.4944 
 225   0.0000       0.792971        21.5778 
 226   0.0000       0.797505        21.7012 
 227   0.0000       0.801646        21.8139 
 228   0.0000       0.808711        22.0061 
 229   0.0000       0.814346        22.1595 
 230   0.0000       0.816663        22.2225 
 231   0.0000       0.826524        22.4909 
 232   0.0000       0.832659        22.6578 
 233   0.0000       0.835352        22.7311 
 234   0.0000       0.840392        22.8682 
 235   0.0000       0.848247        23.0820 
 236   0.0000       0.850276        23.1372 
 237   0.0000       0.855268        23.2730 
 238   0.0000       0.860701        23.4209 
 239   0.0000       0.863997        23.5105 
 240   0.0000       0.868790        23.6410 
 241   0.0000       0.873697        23.7745 
 242   0.0000       0.873896        23.7799 
 243   0.0000       0.884349        24.0644 
 244   0.0000       0.890256        24.2251 
 245   0.0000       0.894605        24.3435 
 246   0.0000       0.896513        24.3953 
 247   0.0000       0.902524        24.5589 
 248   0.0000       0.906203        24.6590 
 249   0.0000       0.907662        24.6987 
 250   0.0000       0.913399        24.8549 
 251   0.0000       0.925364        25.1804 
 252   0.0000       0.925828        25.1931 
 253   0.0000       0.927236        25.2314 
 254   0.0000       0.935116        25.4458 
 255   0.0000       0.937380        25.5074 
 256   0.0000       0.940077        25.5808 
 257   0.0000       0.942994        25.6602 
 258   0.0000       0.951156        25.8823 
 259   0.0000       0.956026        26.0148 
 260   0.0000       0.958074        26.0705 
 261   0.0000       0.961663        26.1682 
 262   0.0000       0.967227        26.3196 
 263   0.0000       0.969753        26.3883 
 264   0.0000       0.975354        26.5407 
 265   0.0000       0.979989        26.6669 
 266   0.0000       0.980953        26.6931 
 267   0.0000       0.983752        26.7693 
 268   0.0000       0.988027        26.8856 
 269   0.0000       0.992836        27.0164 
 270   0.0000       0.999537        27.1988 
 271   0.0000       1.002882        27.2898 
 272   0.0000       1.004148        27.3242 
 273   0.0000       1.007477        27.4148 
 274   0.0000       1.016287        27.6546 
 275   0.0000       1.016956        27.6728 
 276   0.0000       1.019996        27.7555 
 277   0.0000       1.022820        27.8324 
 278   0.0000       1.027351        27.9556 
 279   0.0000       1.034543        28.1513 
 280   0.0000       1.040014        28.3002 
 281   0.0000       1.040650        28.3175 
 282   0.0000       1.043782        28.4028 
 283   0.0000       1.050616        28.5887 
 284   0.0000       1.052979        28.6530 
 285   0.0000       1.056525        28.7495 
 286   0.0000       1.064879        28.9768 
 287   0.0000       1.065325        28.9890 
 288   0.0000       1.071658        29.1613 
 289   0.0000       1.075383        29.2627 
 290   0.0000       1.078981        29.3606 
 291   0.0000       1.084826        29.5196 
 292   0.0000       1.090155        29.6646 
 293   0.0000       1.092759        29.7355 
 294   0.0000       1.097600        29.8672 
 295   0.0000       1.102300        29.9951 
 296   0.0000       1.106403        30.1067 
 297   0.0000       1.114088        30.3159 
 298   0.0000       1.114136        30.3172 
 299   0.0000       1.117769        30.4161 
 300   0.0000       1.126752        30.6605 
 301   0.0000       1.130006        30.7490 
 302   0.0000       1.135369        30.8950 
 303   0.0000       1.142058        31.0770 
 304   0.0000       1.144354        31.1394 
 305   0.0000       1.148865        31.2622 
 306   0.0000       1.150692        31.3119 
 307   0.0000       1.158109        31.5137 
 308   0.0000       1.161116        31.5956 
 309   0.0000       1.161998        31.6196 
 310   0.0000       1.168780        31.8041 
 311   0.0000       1.170641        31.8548 
 312   0.0000       1.177479        32.0408 
 313   0.0000       1.183358        32.2008 
 314   0.0000       1.185450        32.2577 
 315   0.0000       1.191178        32.4136 
 316   0.0000       1.200594        32.6698 
 317   0.0000       1.203262        32.7424 
 318   0.0000       1.210215        32.9316 
 319   0.0000       1.214596        33.0508 
 320   0.0000       1.218690        33.1622 
 321   0.0000       1.220680        33.2164 
 322   0.0000       1.230734        33.4900 
 323   0.0000       1.236141        33.6371 
 324   0.0000       1.237051        33.6619 
 325   0.0000       1.238933        33.7131 
 326   0.0000       1.244166        33.8555 
 327   0.0000       1.248990        33.9867 
 328   0.0000       1.256320        34.1862 
 329   0.0000       1.258401        34.2428 
 330   0.0000       1.261888        34.3377 
 331   0.0000       1.271381        34.5960 
 332   0.0000       1.275005        34.6947 
 333   0.0000       1.278792        34.7977 
 334   0.0000       1.283628        34.9293 
 335   0.0000       1.284368        34.9494 
 336   0.0000       1.289480        35.0885 
 337   0.0000       1.298664        35.3385 
 338   0.0000       1.302079        35.4314 
 339   0.0000       1.308273        35.5999 
 340   0.0000       1.314533        35.7703 
 341   0.0000       1.317322        35.8461 
 342   0.0000       1.322755        35.9940 
 343   0.0000       1.329327        36.1728 
 344   0.0000       1.331938        36.2439 
 345   0.0000       1.336546        36.3693 
 346   0.0000       1.344044        36.5733 
 347   0.0000       1.345565        36.6147 
 348   0.0000       1.348489        36.6942 
 349   0.0000       1.357456        36.9382 
 350   0.0000       1.358357        36.9628 
 351   0.0000       1.362218        37.0678 
 352   0.0000       1.364408        37.1274 
 353   0.0000       1.373977        37.3878 
 354   0.0000       1.377873        37.4938 
 355   0.0000       1.382697        37.6251 
 356   0.0000       1.389643        37.8141 
 357   0.0000       1.391300        37.8592 
 358   0.0000       1.400500        38.1095 
 359   0.0000       1.403060        38.1792 
 360   0.0000       1.409708        38.3601 
 361   0.0000       1.417570        38.5740 
 362   0.0000       1.426504        38.8171 
 363   0.0000       1.427301        38.8388 
 364   0.0000       1.431889        38.9637 
 365   0.0000       1.434888        39.0453 
 366   0.0000       1.440890        39.2086 
 367   0.0000       1.451060        39.4853 
 368   0.0000       1.457677        39.6654 
 369   0.0000       1.466806        39.9138 
 370   0.0000       1.475351        40.1463 
 371   0.0000       1.475726        40.1566 
 372   0.0000       1.478319        40.2271 
 373   0.0000       1.487442        40.4754 
 374   0.0000       1.490661        40.5630 
 375   0.0000       1.493222        40.6326 
 376   0.0000       1.495482        40.6941 
 377   0.0000       1.501474        40.8572 
 378   0.0000       1.509837        41.0847 
 379   0.0000       1.513416        41.1822 
 380   0.0000       1.522922        41.4408 
 381   0.0000       1.527916        41.5767 
 382   0.0000       1.533540        41.7298 
 383   0.0000       1.537969        41.8503 
 384   0.0000       1.538939        41.8767 
 385   0.0000       1.548172        42.1279 
 386   0.0000       1.551988        42.2317 
 387   0.0000       1.564063        42.5603 
 388   0.0000       1.572250        42.7831 
 389   0.0000       1.582682        43.0670 
 390   0.0000       1.586696        43.1762 
 391   0.0000       1.589662        43.2569 
 392   0.0000       1.598420        43.4952 
 393   0.0000       1.605926        43.6995 
 394   0.0000       1.610281        43.8180 
 395   0.0000       1.610655        43.8282 
 396   0.0000       1.613698        43.9110 
 397   0.0000       1.625354        44.2281 
 398   0.0000       1.629343        44.3367 
 399   0.0000       1.643203        44.7138 
 400   0.0000       1.644521        44.7497 
 401   0.0000       1.649575        44.8872 
 402   0.0000       1.655128        45.0383 
 403   0.0000       1.667376        45.3716 
 404   0.0000       1.676563        45.6216 
 405   0.0000       1.680349        45.7246 
 406   0.0000       1.684810        45.8460 
 407   0.0000       1.695733        46.1432 
 408   0.0000       1.701539        46.3012 
 409   0.0000       1.706803        46.4445 
 410   0.0000       1.710846        46.5545 
 411   0.0000       1.712948        46.6117 
 412   0.0000       1.722283        46.8657 
 413   0.0000       1.728095        47.0239 
 414   0.0000       1.731533        47.1174 
 415   0.0000       1.736268        47.2463 
 416   0.0000       1.741892        47.3993 
 417   0.0000       1.750720        47.6395 
 418   0.0000       1.756103        47.7860 
 419   0.0000       1.759648        47.8825 
 420   0.0000       1.766916        48.0802 
 421   0.0000       1.770412        48.1754 
 422   0.0000       1.783001        48.5179 
 423   0.0000       1.787213        48.6325 
 424   0.0000       1.800210        48.9862 
 425   0.0000       1.800847        49.0035 
 426   0.0000       1.806761        49.1645 
 427   0.0000       1.815351        49.3982 
 428   0.0000       1.820844        49.5477 
 429   0.0000       1.826395        49.6987 
 430   0.0000       1.834779        49.9269 
 431   0.0000       1.840656        50.0868 
 432   0.0000       1.846066        50.2340 
 433   0.0000       1.852130        50.3990 
 434   0.0000       1.854688        50.4686 
 435   0.0000       1.859450        50.5982 
 436   0.0000       1.866766        50.7973 
 437   0.0000       1.870230        50.8916 
 438   0.0000       1.883112        51.2421 
 439   0.0000       1.889617        51.4191 
 440   0.0000       1.897036        51.6210 
 441   0.0000       1.901513        51.7428 
 442   0.0000       1.909009        51.9468 
 443   0.0000       1.914201        52.0881 
 444   0.0000       1.926751        52.4295 
 445   0.0000       1.933710        52.6189 
 446   0.0000       1.941609        52.8339 
 447   0.0000       1.949694        53.0539 
 448   0.0000       1.957112        53.2557 
 449   0.0000       1.959810        53.3291 
 450   0.0000       1.964012        53.4435 
 451   0.0000       1.975023        53.7431 
 452   0.0000       1.986617        54.0586 
 453   0.0000       1.990253        54.1575 
 454   0.0000       1.996908        54.3386 
 455   0.0000       2.002781        54.4984 
 456   0.0000       2.006509        54.5999 
 457   0.0000       2.019670        54.9580 
 458   0.0000       2.033356        55.3304 
 459   0.0000       2.036482        55.4155 
 460   0.0000       2.041418        55.5498 
 461   0.0000       2.054999        55.9194 
 462   0.0000       2.060346        56.0649 
 463   0.0000       2.065461        56.2041 
 464   0.0000       2.073492        56.4226 
 465   0.0000       2.087415        56.8015 
 466   0.0000       2.093481        56.9665 
 467   0.0000       2.099594        57.1329 
 468   0.0000       2.103102        57.2283 
 469   0.0000       2.114297        57.5330 
 470   0.0000       2.116664        57.5973 
 471   0.0000       2.129787        57.9544 
 472   0.0000       2.135443        58.1084 
[...]

Thresholds for map construction and integral transformation for weak Triples:
   TCutMKN   ...     1.0e-01
   TCutDO    ...     2.0e-02
   TCutCMO   ...     1.0e-03
   TCutCPAO  ...     1.0e-03

--------------------------------
LOCAL RI TRANSFORMATION (IAVPAO)
--------------------------------

Orbital window:       1 to 4
Number of PAOs:    1012
Basis functions:   1012 (352 shells)
Aux. functions:    2178 (616 shells)
Use SHARK:           on

Processing maps (0.0 sec)
Average map sizes:
   Aux shells -> MOs               1.4
   Aux shells -> PAOs            345.0
   MOs        -> AO shells       352.0
   PAOs       -> AO shells       208.3

Calculating integrals (4.9 sec, 23.048 MB)
Sorting integrals (0.2 sec, 23.039 MB)
Total time for the integral transformation: 5.1 sec
--------------------------------
INITIAL GUESS AND PNO GENERATION
--------------------------------

PNO truncation parameters                   .... 
    ScaleTCutPNO       =        1.000e-02
    PAOOverlapThresh   =        1.000e-08

    TCutPairs          =        1.000e-05
    TCutPNO            =        1.000e-07
    TCutPNOSingles     =        3.000e-09
    TCutMP2Pairs       =        1.000e-06
    TCutMKN            =        1.000e-03
    TCutDO             =        5.000e-03

Pair selection                          .... not used
Type of local MP2 treatment                 .... full local PMP2
Strategy for PNO selection                  .... occupation number selection
Pair density normalization                  .... MP2 norm
Spin component scaling                      .... not used

PASS-1: Formation of initial guess LMP2 amplitudes
Initial amplitudes guess done. Entering LMP2 iteration loop:
   Max. no of iterations          ...  50
   Energy convergence tolerance   ...    1.0e-07
   Residual convergence tolerance ...    5.0e-07
   Fock matrix cutoff             ...    1.0e-05 Eh
   DIIS convergence acceleration parameters:
        Max # vectors in DIIS     ... 7
        Start iteration of DIIS   ... 0
        Levelshift                ... 2.000e-01
        Damping factor 1          ... 5.000e-01
        Damping factor 2          ... 1.000e+00
   L-MP2 PNO cut-off              ...   1.0e-09
   L-MP2 PNO cut-off (core)       ...   1.0e-11
                           *** Turning on DIIS ***
LMP2-Iter=   0:  ELMP2= -0.267391578631  DE=   5.0e-03 RMAX=   4.4e-03
LMP2-Iter=   1:  ELMP2= -0.270108631842  DE=   2.7e-03 RMAX=   2.4e-03
LMP2-Iter=   2:  ELMP2= -0.270506086115  DE=   4.0e-04 RMAX=   5.1e-04
LMP2-Iter=   3:  ELMP2= -0.270559076382  DE=   5.3e-05 RMAX=   1.6e-04
LMP2-Iter=   4:  ELMP2= -0.270563433601  DE=   4.4e-06 RMAX=   2.2e-05
LMP2-Iter=   5:  ELMP2= -0.270563424698  DE=   8.9e-09 RMAX=   6.0e-06
LMP2-Iter=   6:  ELMP2= -0.270563405835  DE=   1.9e-08 RMAX=   6.2e-07
LMP2-Iter=   7:  ELMP2= -0.270563402213  DE=   3.6e-09 RMAX=   1.6e-07
LMP2-Iter=   8:  ELMP2= -0.270563403765  DE=   1.6e-09 RMAX=   1.6e-08 => CONVERGED
PASS-2: Formation of Pair natural orbitals
   .... Finished loop over pairs

 PNO Occupation Number Statistics: 
  | Av. % of trace(Dij) retained        ...  99.992824045656
  | sigma^2 in % of trace(Dij) retained ...   8.51e-07
  | Av. % of trace(Di) retained         ...  99.999736401252
  | sigma^2 in % of trace(Di) retained  ...   3.61e-09
 Distributions of % trace(Dij) recovered:
  |       >= 99.9  ...    10 (100.0 % of all pairs)
 Distributions of % trace(Di) recovered :
  |       >= 99.9  ...     4 (100.0 % of all I-pairs )

Making pair pair interaction lists          ... done

                       ===========================
                         10 OF   10 PAIRS ARE KEPT
                       ===========================

Total time spent in the initial guess                 ...    10.202 sec
L-MP2 correlation energy (all non-screened pairs)     ...      -0.270563403765 Eh
L-MP2 PNO error correction                            ...      -0.000000580548 Eh
                                                          --------------------
Initial total L-MP2 energy (non-screened pairs)       ...      -0.270563984312 Eh

Initial PNO correlation energy                        ...      -0.270515880141 Eh
sum of pair energies estimated for screened out pairs ...       0.000000000000 Eh
sum of MP2 pair energies for pairs that were not kept ...       0.000000000000 Eh
sum of PNO error estimates for the kept pairs         ...      -0.000048104171 Eh
                                                          --------------------
sum of all corrections                                         -0.000048104171
Initial total correlation energy                               -0.270563984312
Thresholds for map construction and integral transformation for fine MP2 and CCSD(T) calculation:
   TCutMKN   ...     1.0e-03
   TCutDO    ...     5.0e-03
   TCutPairs ...     1.0e-05
   TCutCMO   ...     1.0e-03
   TCutCPAO  ...     1.0e-03

Time for aux screen maps:            0.006
Time for maps after fine MP2:            0.020
-----------------------------
LOCAL RI TRANSFORMATION (IJV)
-----------------------------

Orbital window:       1 to 4
Basis functions:   1012 (352 shells)
Aux. functions:    2178 (616 shells)
Use SHARK:           on

Processing maps (0.0 sec)
Average map sizes:
   Aux shells -> MOs(i)            1.4
   Aux shells -> MOs(j)            1.4
   MOs        -> AO shells       352.0

Calculating integrals (4.6 sec, 0.100 MB)
Sorting integrals (0.0 sec, 0.091 MB)
Total time for the integral transformation: 4.7 sec
--------------------------------
LOCAL RI TRANSFORMATION (VABPAO)
--------------------------------

Number of PAOs:    1012
Basis functions:   1012 (352 shells)
Aux. functions:    2178 (616 shells)
Use SHARK:           on

Processing maps (0.0 sec)
Average map sizes:
   Aux shells -> PAOs            345.0
   PAOs       -> AO shells       208.3

Calculating integrals (24.6 sec, 5828.953 MB)
Finished


-------------------------------------
Pair Pair Term precalculation with     
RI-(ij|mn) and (im|jn) transformation  
ON THE FLY                             
-------------------------------------

   IBatch   1 (of   1)              ... done (   24.272 sec)
Total EXT                           ...          24.272 sec

---------------------
RI-PNO TRANSFORMATION
---------------------

Total Number of PNOs                   ...   654
Average number of PNOs per pair        ...    65
Maximal number of PNOs per pair        ...    71
   #pairs with  1 -  5 PNOs   :    0
   #pairs with  6 - 10 PNOs   :    0
   #pairs with 11 - 15 PNOs   :    0
   #pairs with 16 - 20 PNOs   :    0
   #pairs with 21 - 25 PNOs   :    0
   #pairs with 26 - 30 PNOs   :    0
   #pairs with 31 - 35 PNOs   :    0
   #pairs with 36 - 40 PNOs   :    0
   #pairs with 41 - 45 PNOs   :    0
   #pairs with 46 - 50 PNOs   :    0
   #pairs with 56 - 60 PNOs   :    3
   #pairs with 61 - 65 PNOs   :    1
   #pairs with 66 - 70 PNOs   :    5
   #pairs with 71 - 75 PNOs   :    1

Generation of (ij|ab)[P] integrals            ... on
Generation of (ia|bc)[P],(ja|bc)[P] integrals ... on
Storage of 3 and 4 external integrals         ... on
Generation of ALL (ka|bc)[P] integrals        ... on
Keep RI integrals in memory                   ... off

Ibatch:  1 (of  1)
Starting 2-4 index PNO integral generation ... done

Timings:
Total PNO integral transformation time     ...         24.244 sec
Size of the 3-external file                ...        22 MB
Size of the 4-external file                ...       185 MB
Size of the IKJL file                      ...         0 MB
Size of the all 3-external file            ...        44 MB
Size of the 1-external file                ...         0 MB

Making pair/pair overlap matrices          ... done (    0.327 sec)
Size of the pair overlap file              ... 4 MB
Redoing the guess amplitudes               ... done (    0.006 sec)

-------------------------
FINAL STARTUP INFORMATION
-------------------------

E(0)                                       ...    -76.059066585
E(L-MP2)                                   ...     -0.270563984
E(L-MP2) including corrections             ...     -0.270563984
Initial E(tot)                             ...    -76.329630569
<T|T>                                      ...      0.058494412
Number of pairs included                   ... 10
Total number of pairs                      ... 10

------------------------------------------------
                  RHF COUPLED CLUSTER ITERATIONS
------------------------------------------------

Number of PNO amplitudes to be optimized   ...        43014
Number of non-PNO amplitudes               ...     10140490
Untruncated number of regular amplitudes   ...     10140490

Iter       E(tot)           E(Corr)          Delta-E          Residual     Time
  0    -76.321437540     -0.262322851      0.008241133      0.013056426    2.65
                           *** Turning on DIIS ***
  1    -76.326978369     -0.267863680     -0.005540829      0.007688593    2.77
  2    -76.332751580     -0.273636891     -0.005773211      0.002453599    2.68
  3    -76.333915150     -0.274800461     -0.001163570      0.001186900    2.87
  4    -76.334225392     -0.275110704     -0.000310242      0.000388405    2.68
  5    -76.334298186     -0.275183498     -0.000072794      0.000139452    2.70
  6    -76.334313108     -0.275198419     -0.000014921      0.000051395    2.67
  7    -76.334315537     -0.275200848     -0.000002430      0.000018314    2.67
               --- The Coupled-Cluster iterations have converged ---

----------------------
COUPLED CLUSTER ENERGY
----------------------

E(0)                                       ...    -76.059066585
E(CORR)(strong-pairs)                      ...     -0.275200848
E(CORR)(weak-pairs)                        ...     -0.000048104
E(CORR)(corrected)                         ...     -0.275248952
E(TOT)                                     ...    -76.334315537
Singles Norm <S|S>**1/2                    ...      0.028141351  
T1 diagnostic                              ...      0.009949470  

------------------
LARGEST AMPLITUDES
------------------
   3->  5   3->  5       0.039197
   4->  5   4->  5       0.035541
   4-> 12   4-> 12       0.032995
   4->  5   4-> 12       0.029960
   4-> 12   4->  5       0.029960
   3-> 12   3->  5       0.028710
   3->  5   3-> 12       0.028710
   3-> 12   3-> 12       0.025591
   2->  6   2->  6       0.021036
   1->  6   1->  6       0.020384
   2->  6  -1-> -1       0.015039
   2->  7   2->  7       0.014132
   1->  7   1->  7       0.014000
   3->  7   3->  7       0.013862
   1->  6  -1-> -1       0.012951
   4->  7   4->  7       0.012881


-------------------------------------------
DLPNO BASED TRIPLES CORRECTION
-------------------------------------------

Singles multiplier          ...  1.000000
TCutTNO                     ... 1.000e-09
TCutMP2Pairs                ... 1.000e-06
TCutDOStrong                ... 1.000e-02
TCutMKNStrong               ... 1.000e-02
TCutDOWeak                  ... 2.000e-02
TCutMKNWeak                 ... 1.000e-01

Fragment selection                          .... not used
Fock matrix occ-virt block is zero --> Setting DT_in_Triples to false.
Number of Triples that are to be computed   ...        16

 . . . . . . . . .
10% done  
20% done  
30% done  
40% done  
50% done  
60% done  
70% done  
80% done  
90% done               (     12.759 sec)
Triples timings:
Total time for T0               ...    15.445 sec
Total time for Iterative (T)    ...     0.000 sec
Total time of overall (T)       ...    15.445 sec

Triples List generation         ...     0.000 sec
TNO generation                  ...     2.654 sec
Pair density generation         ...     0.001 sec
Look up tables                  ...     0.000 sec
Generating 3-index integrals    ...    12.062 sec
  Make 4-ind.int. from 3-ind.int...     0.212 sec
  Projecting amplitudes (D + S) ...     0.244 sec
  Downprojecting integrals      ...     0.000 sec
  Energy contr. (sum over a,b,c)...     0.057 sec
Fitting ET(->0)                 ...     0.000 sec

Everything after 3-index        ...     0.697 sec

Timing details:
 TNO integrals                  ...    12.260 sec
   Reading 3-index integrals    ...     1.336 sec
   Sorting integrals            ...     1.302 sec
       Sorting integrals 1      ...     0.000 sec
       Sorting integrals 2      ...     1.222 sec
       Sorting integrals 3      ...     0.007 sec
       Sorting integrals 4      ...     0.000 sec
       Sorting integrals 5      ...     0.003 sec
       Sorting integrals 6      ...     0.070 sec
   Calculating local VM**-1/2   ...     0.007 sec
   Orthogonal. integrals        ...     0.014 sec
   Multipl. 3-index integrals   ...     9.602 sec
   All concerning IRIab (w/TNO) ...     0.115 sec

 Calculate W0/W1                ...     0.184 sec
 W 3-ext contribution           ...     0.129 sec
 W 3-int contribution           ...     0.014 sec
 Sorting W                      ...     0.036 sec

 V exchange contribution        ...     0.020 sec

 Timings for Triples without generation
     of 3-index integrals       ...     0.697 sec
       0 weak pairs             ...     0.697 sec
       1 weak pair              ...     0.000 sec
       2 weak pairs             ...     0.000 sec
       3 weak pairs             ...     0.000 sec
  Extra time for extrapolation  ...     0.000 sec

Number of Triples   (0, 1, 2, 3 weak pairs; overall):     16       0       0       0  (    16)
Number of Atoms     (0, 1, 2, 3 weak pairs; overall):   27.6     0.0     0.0     0.0  (    33)
Number of PAOs      (0, 1, 2, 3 weak pairs; overall):  839.5     0.0     0.0     0.0  (  1012)
Number of AuxFcns   (0, 1, 2, 3 weak pairs; overall):  309.4     0.0     0.0     0.0  (  2178)
Number of TNOs      (0, 1, 2, 3 weak pairs         ):  100.2     0.0     0.0     0.0
Aver. Number of NTNO, Atoms, PAOs, AuxFcns / Triples:     16   100.2    27.6   839.5   309.4

Triples Correction (T)                     ...     -0.008497410
Final correlation energy                   ...     -0.283746362
E(CCSD)                                    ...    -76.334315537
E(CCSD(T))                                 ...    -76.342812947



------------------------------------------------------------------------------- 
                                     TIMINGS                                   
------------------------------------------------------------------------------- 


Total execution time                   ...      489.882 sec

Localization of occupied MO's          ...        1.561 sec (  0.3%)
Fock Matrix Formation                  ...      345.651 sec ( 70.6%)
Global overlap, Fock, MKN matrices     ...        1.700 sec (  0.3%)
Differential overlap integrals         ...        3.765 sec (  0.8%)
Organizing maps                        ...        0.063 sec (  0.0%)
RI 3-index integral generations        ...       37.233 sec (  7.6%)
RI-PNO integral transformation         ...       49.074 sec ( 10.0%)
Initial Guess                          ...       12.890 sec (  2.6%)
DIIS Solver                            ...        1.366 sec (  0.3%)
State Vector Update                    ...        0.002 sec (  0.0%)
Sigma-vector construction              ...       21.355 sec (  4.4%)
  <D|H|D>(0-ext)                       ...        0.065 sec (  0.3% of sigma)
  <D|H|D>(2-ext Fock)                  ...        0.003 sec (  0.0% of sigma)
  <D|H|D>(2-ext)                       ...        2.364 sec ( 11.1% of sigma)
  <D|H|D>(4-ext)                       ...        4.024 sec ( 18.8% of sigma)
  <D|H|D>(4-ext-corr)                  ...       10.952 sec ( 51.3% of sigma)
  CCSD doubles correction              ...        0.017 sec (  0.1% of sigma)
  <S|H|S>                              ...        0.509 sec (  2.4% of sigma)
  <S|H|D>(1-ext)                       ...        0.017 sec (  0.1% of sigma)
  <S|H|D>(3-ext)                       ...        0.059 sec (  0.3% of sigma)
  Fock-dressing                        ...        1.299 sec (  6.1% of sigma)
  Singles amplitudes                   ...        0.101 sec (  0.5% of sigma)
  (ik|jl)-dressing                     ...        0.432 sec (  2.0% of sigma)
  (ij|ab),(ia|jb)-dressing             ...        1.044 sec (  4.9% of sigma)
  Pair energies                        ...        0.002 sec (  0.0% of sigma)
Total Time for computing (T)           ...       15.454 sec (  3.2% of ALL)


Maximum memory used throughout the entire MDCI-calculation: 596.9 MB

-------------------------   --------------------
FINAL SINGLE POINT ENERGY       -76.342812947103
-------------------------   --------------------


                            ***************************************
                            *     ORCA property calculations      *
                            ***************************************


  WARNING: The energy has been calculated at the MDCI level but the densities
           used in the property calculations are still SCF densities
           MDCI response densities have not been calculated 
           use %mdci Density linearized end
           or  %mdci Density unrelaxed end
           or  %mdci Density orbopt end

                                    ---------------------
                                    Active property flags
                                    ---------------------
   (+) Dipole Moment


------------------------------------------------------------------------------
                       ORCA ELECTRIC PROPERTIES CALCULATION
------------------------------------------------------------------------------

Dipole Moment Calculation                       ... on
Quadrupole Moment Calculation                   ... off
Polarizability Calculation                      ... off
GBWName                                         ... CP_job5.gbw
Electron density                                ... CP_job5.scfp
The origin for moment calculation is the CENTER OF MASS  = ( 1.314828, -4.142295 -17.886632)

-------------
DIPOLE MOMENT
-------------
                                X             Y             Z
Electronic contribution:      0.19687       0.04397      -0.04480
Nuclear contribution   :     -0.94760      -0.20933       0.19530
                        -----------------------------------------
Total Dipole Moment    :     -0.75073      -0.16537       0.15050
                        -----------------------------------------
Magnitude (a.u.)       :      0.78332
Magnitude (Debye)      :      1.99105



--------------------
Rotational spectrum 
--------------------
 
Rotational constants in cm-1:    26.667394    14.085511     9.217107 
Rotational constants in MHz : 799468.356605 422273.010692 276321.911440 

 Dipole components along the rotational axes: 
x,y,z [a.u.] :     0.039498     0.782326     0.000348 
x,y,z [Debye]:     0.100395     1.988515     0.000883 

 

Timings for individual modules:

Sum of individual times         ...     2220.152 sec (=  37.003 min)
GTO integral calculation        ...        3.900 sec (=   0.065 min)   0.2 %
SCF iterations                  ...     1723.109 sec (=  28.718 min)  77.6 %
MDCI module                     ...      493.144 sec (=   8.219 min)  22.2 %

Energy for            dimer from job 1  =   -839.845060749
Energy for         fragment from job 2  =   -763.479590654
Energy for         fragment from job 3  =    -76.341635917
Energy for            ghost from job 4  =   -763.480782214
Energy for            ghost from job 5  =    -76.342812947


Energy for fragment            dimer:   -839.845060749 Eh
Energy for fragment         fragment:   -839.821226572 Eh   14.956 kcal/mol
Energy for fragment            ghost:   -839.823595161 Eh   13.470 kcal/mol

----------------------------
REACTION ENERGIES (kcal/mol)  14.956  13.470 
----------------------------

                             ****ORCA TERMINATED NORMALLY****
TOTAL RUN TIME: 0 days 9 hours 41 minutes 58 seconds 511 msec
