 Entering Gaussian System, Link 0=g16
 Input=deformation30.com
 Output=deformation30.log
 Initial command:
 /home/spantaleone/g16/l1.exe "/scratch/cnt0027/pag0797/spantaleone/tino/deformation_on_good/30/deformation/Gau-3266.inp" -scrdir="/scratch/cnt0027/pag0797/spantaleone/tino/deformation_on_good/30/deformation/"
 Entering Link 1 = /home/spantaleone/g16/l1.exe PID=      3267.
  
 Copyright (c) 1988-2017, Gaussian, Inc.  All Rights Reserved.
  
 This is part of the Gaussian(R) 16 program.  It is based on
 the Gaussian(R) 09 system (copyright 2009, Gaussian, Inc.),
 the Gaussian(R) 03 system (copyright 2003, Gaussian, Inc.),
 the Gaussian(R) 98 system (copyright 1998, Gaussian, Inc.),
 the Gaussian(R) 94 system (copyright 1995, Gaussian, Inc.),
 the Gaussian 92(TM) system (copyright 1992, Gaussian, Inc.),
 the Gaussian 90(TM) system (copyright 1990, Gaussian, Inc.),
 the Gaussian 88(TM) system (copyright 1988, Gaussian, Inc.),
 the Gaussian 86(TM) system (copyright 1986, Carnegie Mellon
 University), and the Gaussian 82(TM) system (copyright 1983,
 Carnegie Mellon University). Gaussian is a federally registered
 trademark of Gaussian, Inc.
  
 This software contains proprietary and confidential information,
 including trade secrets, belonging to Gaussian, Inc.
  
 This software is provided under written license and may be
 used, copied, transmitted, or stored only in accord with that
 written license.
  
 The following legend is applicable only to US Government
 contracts under FAR:
  
                    RESTRICTED RIGHTS LEGEND
  
 Use, reproduction and disclosure by the US Government is
 subject to restrictions as set forth in subparagraphs (a)
 and (c) of the Commercial Computer Software - Restricted
 Rights clause in FAR 52.227-19.
  
 Gaussian, Inc.
 340 Quinnipiac St., Bldg. 40, Wallingford CT 06492
  
  
 ---------------------------------------------------------------
 Warning -- This program may not be used in any manner that
 competes with the business of Gaussian, Inc. or will provide
 assistance to any competitor of Gaussian, Inc.  The licensee
 of this program is prohibited from giving any competitor of
 Gaussian, Inc. access to this program.  By using this program,
 the user acknowledges that Gaussian, Inc. is engaged in the
 business of creating and licensing software in the field of
 computational chemistry and represents and warrants to the
 licensee that it is not a competitor of Gaussian, Inc. and that
 it will not use this program in any manner prohibited above.
 ---------------------------------------------------------------
  

 Cite this work as:
 Gaussian 16, Revision B.01,
 M. J. Frisch, G. W. Trucks, H. B. Schlegel, G. E. Scuseria, 
 M. A. Robb, J. R. Cheeseman, G. Scalmani, V. Barone, 
 G. A. Petersson, H. Nakatsuji, X. Li, M. Caricato, A. V. Marenich, 
 J. Bloino, B. G. Janesko, R. Gomperts, B. Mennucci, H. P. Hratchian, 
 J. V. Ortiz, A. F. Izmaylov, J. L. Sonnenberg, D. Williams-Young, 
 F. Ding, F. Lipparini, F. Egidi, J. Goings, B. Peng, A. Petrone, 
 T. Henderson, D. Ranasinghe, V. G. Zakrzewski, J. Gao, N. Rega, 
 G. Zheng, W. Liang, M. Hada, M. Ehara, K. Toyota, R. Fukuda, 
 J. Hasegawa, M. Ishida, T. Nakajima, Y. Honda, O. Kitao, H. Nakai, 
 T. Vreven, K. Throssell, J. A. Montgomery, Jr., J. E. Peralta, 
 F. Ogliaro, M. J. Bearpark, J. J. Heyd, E. N. Brothers, K. N. Kudin, 
 V. N. Staroverov, T. A. Keith, R. Kobayashi, J. Normand, 
 K. Raghavachari, A. P. Rendell, J. C. Burant, S. S. Iyengar, 
 J. Tomasi, M. Cossi, J. M. Millam, M. Klene, C. Adamo, R. Cammi, 
 J. W. Ochterski, R. L. Martin, K. Morokuma, O. Farkas, 
 J. B. Foresman, and D. J. Fox, Gaussian, Inc., Wallingford CT, 2016.
 
 ******************************************
 Gaussian 16:  ES64L-G16RevB.01 20-Dec-2017
                25-Jan-2021 
 ******************************************
 %nosave
 %nproc=24
 Will use up to   24 processors via shared memory.
 %mem=24gb
 %chk=input
 ----------------------------------------------------------------------
 #P ONIOM(B97D3/aug-cc-pvtz:external="/home/spantaleone/xtb_6.3.3/xtb-6
 .3.3/scripts/xtb-gaussian")
 ----------------------------------------------------------------------
 1/38=1,52=2,172=1/1;
 2/12=2,17=6,18=5,40=1/2;
 1/38=1,52=2,53=3172/20;
 3/11=9,25=1,30=1,41=9900000,43=2/1;
 4/20=17,24=3,113=1,114=1/2;
 6/7=2,8=2,9=2,10=2/1;
 1/52=2,53=2032/20;
 3/5=16,6=1,7=10,11=2,25=1,30=1,74=-59/1,2,3;
 4//1;
 5/5=2,38=5/2;
 6/7=2,8=2,9=2,10=2,28=1/1;
 1/52=2,53=1022/20;
 3/11=9,25=1,30=1,41=9900000,43=2/1;
 4/20=17,24=3,113=1,114=2/2;
 6/7=2,8=2,9=2,10=2/1;
 1/52=2,53=3014/20;
 99/5=1,9=1/99;
 Leave Link    1 at Mon Jan 25 15:08:03 2021, MaxMem=  3221225472 cpu:               2.2 elap:               0.1
 (Enter /home/spantaleone/g16/l101.exe)
 -----
 Title
 -----
 Symbolic Z-matrix:
 Charge =  0 Multiplicity = 1 for low   level calculation on real  system.
 Charge =  0 Multiplicity = 1 for high  level calculation on model system.
 Charge =  0 Multiplicity = 1 for low   level calculation on model system.
 H                    -1.80764  -0.13082   2.48371  M 
 O                    -0.83222  -0.0582    2.56511  M 
 H                    -0.51663  -0.93784   2.88058  M 
 H                    -0.35715  -1.79975  -2.87071  M 
 O                    -0.42917  -1.8253   -1.90394  M 
 H                    -1.38018  -1.7813   -1.70945  M 
 H                    -2.85503   1.73822   0.87993  M 
 O                    -2.72973   1.1078    0.15092  M 
 H                    -1.95828   1.43072  -0.34891  M 
 H                    -3.85534   1.83     -2.98995  M 
 O                    -3.35765   2.20598  -3.75339  M 
 H                    -2.46037   2.37526  -3.44793  M 
 H                    -0.1156   -0.57527  -0.79784  M 
 O                    -0.02099   0.15383  -0.15436  M 
 H                    -0.43677  -0.1588    0.65982  M 
 H                     0.99588  -1.78669  -4.79931  M 
 O                     0.0672   -2.01072  -4.6235   M 
 H                     0.01729  -2.97779  -4.6663   M 
 H                    -5.07684   2.23413  -1.24189  M 
 O                    -4.67374   1.42868  -1.62029  M 
 H                    -3.98621   1.17533  -0.95962  M 
 H                    -3.72926   3.23206   2.53728  M 
 O                    -2.97977   2.64796   2.31189  M 
 H                    -2.22375   3.02232   2.80028  M 
 H                     2.50362   0.45176  -2.92921  M 
 O                     1.92855  -0.21114  -2.49547  M 
 H                     1.01198   0.05764  -2.69912  M 
 H                    -1.18868   0.34944  -3.5842   M 
 O                    -0.40498   0.86356  -3.29828  M 
 H                    -0.67984   1.44316  -2.56887  M 
 H                     2.66251  -0.41854   0.57244  M 
 O                     2.60651  -1.16413  -0.0599   M 
 H                     2.32197  -0.78871  -0.91506  M 
 H                    -2.86201  -0.54457  -0.58402  M 
 O                    -2.97909  -1.00397  -1.42607  M 
 H                    -3.75728  -1.58628  -1.3542   M 
 H                     2.72677   1.4322   -0.78211  M 
 O                     1.88592   1.90769  -0.66058  M 
 H                     1.20007   1.22732  -0.49162  M 
 H                     0.39126   3.28001  -3.20096  M 
 O                     1.31702   3.13539  -2.96482  M 
 H                     1.34004   2.66813  -2.10996  M 
 H                     0.26211  -3.92945  -0.57158  M 
 O                     0.05914  -4.61894  -1.24254  M 
 H                    -0.70074  -5.11229  -0.85773  M 
 H                    -6.36576   1.88479   3.04559  M 
 O                    -6.43201   2.07739   4.01761  M 
 H                    -7.15843   1.51494   4.35144  M 
 H                     1.26784  -3.63284   1.28258  M 
 O                     0.82592  -2.9978    0.68987  M 
 H                     1.47727  -2.31116   0.4411   M 
 H                    -3.15726   5.14766  -0.94417  M 
 O                    -2.94166   4.35566  -0.41672  M 
 H                    -3.81272   3.94886  -0.22661  M 
 H                    -5.48174  -1.47496   1.6856   M 
 O                    -5.23741  -0.82261   0.99489  M 
 H                    -5.3248   -1.281     0.15368  M 
 H                    -0.23575  -3.19015   3.02716  M 
 O                     0.03902  -2.36909   3.47006  M 
 H                     0.97766  -2.22846   3.26438  M 
 H                     5.16425   1.31152  -1.14545  M 
 O                     4.40243   0.747    -0.95172  M 
 H                     4.6489    0.33792  -0.09241  M 
 H                     0.59331   2.46438   1.08149  M 
 O                     0.60166   2.12029   1.98399  M 
 H                     0.02376   1.33665   2.02965  M 
 H                     4.43124  -0.2423   -2.32082  M 
 O                     4.65495  -0.71557  -3.15389  M 
 H                     5.10676  -0.0472   -3.70997  M 
 H                     2.87151   3.4424   -0.96036  M 
 O                     3.73252   3.88044  -0.93557  M 
 H                     4.22794   3.61517  -1.73398  M 
 H                    -5.84272  -1.69092  -1.90153  M 
 O                    -5.28348  -2.36966  -1.46518  M 
 H                    -5.16683  -3.0784   -2.12145  M 
 H                    -4.76899  -4.23442   1.22222  M 
 O                    -5.4832   -3.63125   0.94319  M 
 H                    -5.26498  -3.3334    0.04983  M 
 H                     2.58323   2.33643  -3.63622  M 
 O                     3.28639   1.68773  -3.84565  M 
 H                     3.35722   1.65785  -4.80539  M 
 H                    -5.35063   3.64767   3.77712  M 
 O                    -4.8048    4.26275   3.27585  M 
 H                    -4.30152   4.81353   3.91291  M 
 H                     0.5615    1.1117   -4.71055  M 
 O                     1.05769   1.02342  -5.55025  M 
 H                     1.69387   0.29446  -5.39622  M 
 H                     0.74841   5.89048  -2.23229  M 
 O                     1.55486   5.59509  -1.77594  M 
 H                     2.12644   5.17567  -2.44918  M 
 H                    -2.67161  -3.53919  -1.8069   M 
 O                    -2.8113   -3.80037  -0.8808   M 
 H                    -3.5475   -4.42774  -0.85609  M 
 H                     1.82578   5.33004  -4.48816  M 
 O                     0.94752   5.38444  -4.90323  M 
 H                     0.96503   4.69192  -5.59098  M 
 H                     7.65037   2.22527  -0.88208  M 
 O                     6.87837   1.83244  -1.32889  M 
 H                     7.26646   1.16941  -1.9353   M 
 H                     4.34845   3.01188   0.37369  M 
 O                     4.69866   2.66308   1.21872  M 
 H                     4.59368   3.40457   1.85064  M 
 H                     1.16644  -3.07017  -2.19798  M 
 O                     2.01628  -2.87419  -2.61877  M 
 H                     2.06015  -1.8955   -2.64186  M 
 H                     0.95446   4.70156  -0.54874  M 
 O                     0.51804   4.2067    0.18132  M 
 H                    -0.18609   4.78357   0.52791  M 
 H                    -5.81402   0.7787    1.25861  M 
 O                    -6.33485   1.58347   1.4542   M 
 H                    -7.25653   1.30815   1.21541  M 
 H                    -2.19292  -2.69813   0.24672  M 
 O                    -1.74035  -2.11143   0.88284  M 
 H                    -0.81785  -2.41602   0.87757  M 
 H                    -3.69106  -0.51019   4.27591  M 
 O                    -3.67748  -0.6498    5.25037  M 
 H                    -4.40552  -1.26264   5.50162  M 
 H                    -5.9659   -3.12139   3.20298  M 
 O                    -5.5591   -2.2442    3.29829  M 
 H                    -4.59752  -2.42945   3.2938   M 
 H                    -2.87396  -0.46194  -2.99575  M 
 O                    -2.60909  -0.50839  -3.94148  M 
 H                    -2.41059  -1.46777  -4.02595  M 
 H                    -3.32773  -3.47323  -3.74433  M 
 O                    -2.48521  -3.05658  -3.49743  M 
 H                    -1.76626  -3.66076  -3.77084  M 
 H                     3.23384  -0.94759  -4.27204  M 
 O                     2.6868   -1.08307  -5.06907  M 
 H                     3.32544  -1.21923  -5.78746  M 
 H                     4.53496   2.63726  -6.59202  M 
 O                     4.04122   1.79219  -6.61218  M 
 H                     3.19407   1.99298  -7.01857  M 
 H                    -4.25053   0.75689   5.79881  M 
 O                    -4.76741   1.55905   6.06761  M 
 H                    -5.34169   1.7636    5.30203  M 
 H                    -3.9736   -0.25361   2.008    M 
 O                    -3.44851   0.0768    2.75701  M 
 H                    -3.40831   1.05181   2.68372  M 
 H                    -5.85224   0.38101  -2.23211  M 
 O                    -6.3661   -0.30212  -2.71027  M 
 H                    -5.93528  -0.37163  -3.58417  M 
 H                     2.01866  -3.66039  -4.16492  M 
 O                     1.97911  -4.11223  -5.03012  M 
 H                     1.62542  -4.99748  -4.84134  M 
 H                     4.58758  -3.32449  -0.69085  M 
 O                     4.84244  -2.57099  -0.10969  M 
 H                     4.05456  -1.97726  -0.10473  M 
 H                    -0.40759   3.0548   -0.8591   M 
 O                    -1.13944   2.65124  -1.35515  M 
 H                    -1.88187   3.27581  -1.21834  M 
 H                     1.54208   4.4886    1.61524  M 
 O                     1.99207   4.63351   2.4677   M 
 H                     1.83518   3.8318    2.99073  M 
 H                     3.61897   1.35687   1.65925  M 
 O                     2.87552   0.74244   1.81436  M 
 H                     2.07737   1.29027   1.94697  M 
 H                     3.27865  -3.76014  -2.1286   M 
 O                     4.00654  -4.35094  -1.81656  M 
 H                     4.68054  -4.34412  -2.51316  M 
 H                     5.09857  -3.47728  -4.56901  M 
 O                     5.5191   -3.14878  -3.73641  M 
 H                     5.07058  -2.31699  -3.48329  M 
 H                    -1.32376   5.01782   2.18131  M 
 O                    -1.52693   5.5726    1.3923   M 
 H                    -2.14077   5.05541   0.80948  M 
 H                    -5.85056   2.95891   0.52596  M 
 O                    -5.42176   3.48896  -0.17283  M 
 H                    -5.9105    4.32545  -0.31621  M 
 H                     5.15506  -3.62679   2.87635  M 
 O                     4.39573  -3.48173   2.30605  M 
 H                     4.71212  -3.16633   1.42932  M 
 H                     5.86164  -1.0186    1.32297  M 
 O                     5.42513  -0.14409   1.3254   M 
 H                     6.18228   0.47101   1.37811  M 
 H                     1.8609   -6.53735  -3.1269   M 
 O                     1.68712  -6.74134  -4.07081  M 
 H                     2.5676   -6.78553  -4.4749   M 
 H                    -7.07193  -3.90239   0.74745  M 
 O                    -8.03941  -3.93669   0.54717  M 
 H                    -8.50576  -3.77557   1.39613  M 
 H                     3.307    -2.28327   2.76819  M 
 O                     2.59558  -1.64611   2.96733  M 
 H                     2.78021  -0.82621   2.47454  M 
 H                    -2.05672   2.57047   5.13815  M 
 O                    -2.80084   3.18072   5.29518  M 
 H                    -3.51864   2.6402    5.67633  M 
 H                    -0.87844   0.85403   4.00875  M 
 O                    -0.78018   1.40108   4.8204   M 
 H                     0.03795   1.89284   4.69129  M 
 H                     0.07572   3.57496  -6.87878  M 
 O                     1.03825   3.41753  -6.76035  M 
 H                     1.0922    2.5623   -6.29283  M 
 H                     7.24022  -2.55829   4.66497  M 
 O                     6.50747  -3.04042   4.21251  M 
 H                     5.68552  -2.72689   4.66098  M 
 H                     7.89089   1.8547    1.40919  M 
 O                     7.8498    0.91961   1.68618  M 
 H                     8.35863   0.39589   1.04008  M 
 H                    -4.09887  -0.57568  -4.65867  M 
 O                    -5.02562  -0.65185  -4.99324  M 
 H                    -5.03087  -0.26673  -5.89086  M 
 H                     6.46483  -1.06685  -2.19826  M 
 O                     6.89503  -1.51488  -1.46454  M 
 H                     6.17618  -1.82458  -0.88135  M 
 H                     4.70996  -0.63778   4.41926  M 
 O                     5.09046   0.1283    3.95779  M 
 H                     5.04121  -0.02579   2.99039  M 
 H                    -0.18937   3.30697   2.92936  M 
 O                    -0.8448    3.92973   3.30294  M 
 H                    -0.54539   4.19125   4.19506  M 
 H                     8.25303  -0.79846  -0.74702  M 
 O                     9.02544  -0.3997   -0.28821  M 
 H                     9.75272  -1.03004  -0.38145  M 
 H                     9.75682  -3.33984   2.09159  H 
 O                     9.44935  -3.12083   1.18113  H 
 H                     10.23067  -2.9291    0.64174  H 
 H                    -2.30866  -2.70967   3.82167  M 
 O                    -2.92945  -2.81414   3.09086  M 
 H                    -2.48979  -2.45695   2.27841  M 
 H                    -2.2351    0.79921  -6.26026  M 
 O                    -2.89532   1.51951  -6.28982  M 
 H                    -3.15473   1.67986  -5.35865  M 
 H                    -1.44072   3.89306  -5.45321  M 
 O                    -1.56303   3.86519  -6.43063  M 
 H                    -2.11913   3.08011  -6.58265  M 
 H                    -4.35569  -6.37809  -1.2221   M 
 O                    -4.86043  -5.6576   -0.81561  M 
 H                    -5.63661  -5.50998  -1.39766  M 
 H                     2.89836  -5.60953  -1.56442  M 
 O                     2.11164  -6.18607  -1.49081  M 
 H                     1.32467  -5.58903  -1.37314  M 
 H                     3.43051  -3.98774  -5.69997  M 
 O                     4.38921  -3.92904  -5.96695  M 
 H                     4.4661   -3.18256  -6.56698  M 
 H                     7.29415   3.81201   2.08527  M 
 O                     7.22603   3.46007   1.18872  M 
 H                     6.31041   3.09068   1.1335   M 
 H                     6.74931  -3.53232   0.26282  H 
 O                     7.30907  -4.30327   0.05173  H 
 H                     8.17118  -4.02663   0.44853  H 
 H                    -7.32993  -4.67559  -2.50581  M 
 O                    -7.05964  -5.5968   -2.2953   M 
 H                    -7.66649  -5.90389  -1.5949   M 
 H                    -4.70194   6.56343   5.01462  M 
 O                    -3.80162   6.27076   4.77731  M 
 H                    -3.30887   6.07618   5.58912  M 
 H                     7.08247   3.86064   4.85528  M 
 O                     7.09753   3.46958   3.97189  M 
 H                     7.39191   2.54761   4.09741  M 
 H                    -5.85237   0.5968    6.95763  M 
 O                    -6.59661   0.0179    7.24337  M 
 H                    -6.281    -0.88934   7.0968   M 
 H                    -0.29009  -4.79399  -2.96414  M 
 O                    -0.46764  -4.69049  -3.91663  M 
 H                    -1.02392  -5.42791  -4.19871  M 
 H                     6.67261   0.53812   4.32278  M 
 O                     7.63381   0.7709    4.28055  M 
 H                     7.8462    0.75217   3.32066  M 
 H                     5.0408   -6.31139  -3.98321  M 
 O                     4.3556   -6.50981  -4.65918  M 
 H                     4.45803  -5.82838  -5.33093  M 
 H                    -5.86416  -2.03344  -5.26033  M 
 O                    -6.44569  -2.82266  -5.37994  M 
 H                    -7.31711  -2.43714  -5.65575  M 
 H                    -7.70622   0.27811   6.03551  M 
 O                    -8.28333   0.59354   5.2947   M 
 H                    -8.92207   1.18831   5.69122  M 
 H                    -5.50798   5.52513   2.36264  M 
 O                    -5.78567   6.42891   2.10889  M 
 H                    -4.95057   6.94111   2.09508  M 
 H                     5.66047   1.96006  -3.99581  M 
 O                     5.93381   1.19482  -4.54708  M 
 H                     5.43539   1.27189  -5.36314  M 
 H                    -6.18206   6.2312    0.45518  M 
 O                    -6.2001    6.01542  -0.50064  M 
 H                    -5.3225    6.29561  -0.83648  M 
 H                     0.03386  -7.36446  -3.22972  M 
 O                    -0.65979  -7.52649  -2.57931  M 
 H                    -0.24455  -7.86496  -1.77739  M 
 H                    -2.4759   -1.72698   5.50567  M 
 O                    -1.79071  -2.42466   5.63924  M 
 H                    -0.97878  -1.92256   5.8405   M 
 H                     7.6544   -4.03015  -1.65506  H 
 O                     7.81384  -4.03957  -2.62948  H 
 H                     7.0146   -3.6029   -2.98764  H 
 H                    -8.72482  -3.23562  -3.30599  M 
 O                    -7.80758  -3.11637  -2.96854  M 
 H                    -7.27298  -2.89507  -3.74632  M 
 H                     8.93236  -2.80476  -2.96535  M 
 O                     9.53489  -2.05021  -3.14122  M 
 H                     8.99403  -1.24589  -3.04318  M 
 H                    -4.89888  -5.09481  -3.63397  M 
 O                    -4.90695  -4.13256  -3.49422  M 
 H                    -5.44477  -3.75624  -4.20173  M 
 H                    -3.87064   3.93258  -3.47849  M 
 O                    -3.61854   4.79518  -3.11047  M 
 H                    -3.93865   5.48526  -3.6927   M 
 H                    -0.50283   4.82347  -3.99496  M 
 O                    -1.12691   4.10069  -3.80434  M 
 H                    -1.92917   4.50572  -3.41735  M 
 H                    -1.78347  -4.18028   5.31531  M 
 O                    -2.03773  -5.05036   4.96995  M 
 H                    -2.97652  -4.94591   4.73542  M 
 H                    -2.82345   8.35825  -3.65569  M 
 O                    -2.98428   7.3994   -3.77087  M 
 H                    -2.77769   7.18183  -4.70656  M 
 H                    -3.33883   7.1817    3.32038  M 
 O                    -3.27672   7.3905    2.37317  M 
 H                    -2.64926   6.73127   2.0126   M 
 H                     4.70871   1.77156   4.19487  M 
 O                     4.51013   2.72007   4.03779  M 
 H                     5.36601   3.12307   3.79882  M 
 H                     7.93116  -1.42971   6.21173  M 
 O                     8.37886  -1.59985   5.35971  M 
 H                     8.29572  -0.74895   4.88475  M 
 H                     6.06879  -1.27841   7.73319  M 
 O                     6.74867  -0.72214   7.34014  M 
 H                     6.25576   0.01438   6.9138   M 
 H                    -2.04084   5.68064  -6.40238  M 
 O                    -2.21733   6.61225  -6.19971  M 
 H                    -1.36697   7.07729  -6.29448  M 
 H                    -8.20191  -0.558     3.96397  M 
 O                    -7.99543  -1.07742   3.17423  M 
 H                    -7.07613  -1.38482   3.26989  M 
 H                    -8.5502   -0.20741   0.21472  M 
 O                    -8.60745   0.42349   0.95149  M 
 H                    -8.55389  -0.12682   1.75143  M 
 H                     0.83732  -0.5238    5.89881  M 
 O                     0.01005  -0.64006   6.42187  M 
 H                    -0.52867   0.11212   6.12041  M 
 H                    -0.82016   7.04513  -1.58962  M 
 O                    -0.76213   6.67061  -2.49147  M 
 H                    -1.62619   6.83483  -2.93217  M 
 H                     0.91076  -7.95346   0.49843  M 
 O                     0.01417  -8.23828   0.26378  M 
 H                    -0.42766  -8.33052   1.13524  M 
 H                     1.86915   2.74729   5.26268  M 
 O                     1.88927   2.47517   4.32073  M 
 H                     2.82734   2.54344   4.06584  M 
 H                    -7.77146  -5.75836  -5.55337  M 
 O                    -6.88344  -5.57252  -5.90019  M 
 H                    -6.77245  -4.61484  -5.83705  M 
 H                     3.34052  -7.40629   0.98651  M 
 O                     2.44107  -7.07425   0.94494  M 
 H                     2.34857  -6.73757   0.01522  M 
 H                     3.01134   5.94403  -7.36995  M 
 O                     3.20712   4.99152  -7.50009  M 
 H                     2.39945   4.50277  -7.27802  M 
 H                    -0.86584   6.98647   0.57964  M 
 O                    -0.59303   7.71047  -0.00885  M 
 H                    -1.29883   8.37015   0.05028  M 
 H                     4.24356   3.84009   5.24742  M 
 O                     4.13065   4.47674   5.99392  M 
 H                     5.00952   4.5753    6.36958  M 
 H                     7.49076   3.11957   6.81687  M 
 O                     6.92545   3.93412   6.74942  M 
 H                     7.38322   4.61171   7.24572  M 
 H                     4.3526   -7.70422  -1.06079  H 
 O                     4.75021  -6.99121  -0.53048  H 
 H                     5.2805   -6.51808  -1.20895  H 
 H                     6.94957  -5.59968  -2.77771  H 
 O                     6.2012   -6.23469  -2.7724   H 
 H                     6.56524  -7.15834  -2.76055  H 
 H                    -8.92305  -2.50704   3.00122  M 
 O                    -9.37139  -3.34442   2.75841  M 
 H                    -10.12234  -3.06795   2.20603  M 
 H                    -3.10207   8.64953   1.09067  M 
 O                    -2.97877   9.02001   0.20087  M 
 H                    -3.80009   9.5465    0.03705  M 
 H                     8.03862   0.98755   7.34333  M 
 O                     8.34844   1.70326   6.7778   M 
 H                     8.21147   1.3784    5.8711   M 
 H                    -2.61582   4.97543   7.71617  M 
 O                    -2.34632   5.21347   6.83022  M 
 H                    -2.50383   4.40453   6.25718  M 
 H                    -6.05268  -6.60918  -3.36776  M 
 O                    -5.37825  -6.76891  -4.05286  M 
 H                    -5.83337  -6.49617  -4.87862  M 
 H                     6.87175  -2.46773   2.64575  M 
 O                     6.97916  -2.20441   1.71301  M 
 H                     7.92818  -2.2194    1.52622  M 
 H                     1.98456   6.85068  -0.77974  M 
 O                     2.20798   7.5961   -0.17822  M 
 H                     1.35059   7.89269   0.15123  M 
 H                    -3.90794  -7.4588   -2.93527  M 
 O                    -3.34318  -7.48432  -2.15436  M 
 H                    -2.42912  -7.56233  -2.48268  M 
 H                     0.52569   6.82864  -5.57582  M 
 O                     0.31374   7.69573  -5.99356  M 
 H                     0.30445   8.32227  -5.24068  M 
 H                    -8.24252  -1.94198  -1.65777  M 
 O                    -8.54405  -1.69415  -0.76988  M 
 H                    -8.27818  -2.47584  -0.23499  M 
 H                    -3.63065   7.02552  -2.11989  M 
 O                    -3.71786   6.8341   -1.17634  M 
 H                    -3.45035   7.64561  -0.69604  M 
 H                     2.98273  -4.41601   2.27557  M 
 O                     2.08435  -4.79928   2.28428  M 
 H                     2.17818  -5.68166   1.86754  M 
 H                    -8.84022  -1.05746  -5.00948  M 
 O                    -8.72838  -1.62355  -5.80861  M 
 H                    -8.47129  -1.00626  -6.51612  M 
 H                     7.48288   0.3568   -3.92574  M 
 O                     8.13039   0.34735  -3.20166  M 
 H                     8.77206   1.0443   -3.3992   M 
 H                     3.87728   6.896    -0.03632  M 
 O                     4.61291   6.29435  -0.23443  M 
 H                     4.19044   5.43964  -0.47386  M 
 H                    -8.00576  -0.12787  -3.18673  M 
 O                    -8.90404  -0.14781  -3.57697  M 
 H                    -9.49409  -0.41558  -2.87107  M 
 H                     5.89716   4.13425  -3.263    M 
 O                     5.45827   3.32581  -2.93959  M 
 H                     6.06552   2.92244  -2.27518  M 
 H                    -1.07015  -6.93263   0.04744  M 
 O                    -1.71904  -6.21787  -0.11758  M 
 H                    -2.2994   -6.543    -0.81268  M 
 H                    -3.65103  -7.93168   0.94495  M 
 O                    -3.88786  -7.69294   1.8442   M 
 H                    -3.71527  -6.72372   1.91551  M 
 H                    -2.67837  -5.1829    1.13975  M 
 O                    -3.39273  -5.10044   1.79244  M 
 H                    -3.13864  -4.37627   2.39968  M 
 H                     5.49692  -5.97062   4.74895  M 
 O                     4.73294  -5.74953   4.21363  M 
 H                     5.02095  -5.83172   3.28882  M 
 H                    -9.33892  -6.5467   -3.9205   M 
 O                    -9.37628  -6.08114  -4.78755  M 
 H                    -9.99625  -6.57567  -5.32393  M 
 H                     6.50143  -5.41696   1.15535  H 
 O                     6.01098  -6.06879   1.70743  H 
 H                     5.4711   -6.53203   1.0308   H 
 H                    -1.10762  -6.78478   2.52256  M 
 O                    -1.20636  -7.75024   2.57474  M 
 H                    -2.16031  -7.91612   2.56537  M 
 H                    -9.94029  -4.40081  -4.48347  M 
 O                    -10.10887  -3.48354  -4.20937  M 
 H                    -9.90209  -2.91841  -4.96613  M 
 H                     0.06148   8.0296   -3.19047  M 
 O                     0.34395   8.88056  -3.58618  M 
 H                     1.23865   9.0579   -3.22844  M 
 H                    -8.79412  -8.28675  -2.55275  M 
 O                    -9.41538  -7.55703  -2.54702  M 
 H                    -9.31302  -7.12481  -1.67984  M 
 H                     2.01857   0.74268   4.57952  M 
 O                     2.15416  -0.1068    5.0411   M 
 H                     2.3921   -0.77187   4.36098  M 
 H                    -6.6225    0.19666  -7.57177  M 
 O                    -7.58406   0.24023  -7.44188  M 
 H                    -7.77727   1.13254  -7.15172  M 
 H                     6.0014    4.24868  -7.26413  M 
 O                     5.41708   4.15493  -6.51179  M 
 H                     4.55066   4.57797  -6.80052  M 
 H                    -5.82721   10.07331   0.74051  M 
 O                    -5.3389    10.12122  -0.09226  M 
 H                    -5.90423   9.61745  -0.71055  M 
 H                    -0.80744  -1.07652  -5.75743  M 
 O                    -1.00146  -0.42298  -6.4643   M 
 H                    -0.24244   0.18888  -6.40958  M 
 H                     4.70427  -0.14908  -6.95047  M 
 O                     4.82871  -1.0796   -6.73514  M 
 H                     5.67939  -1.14658  -6.26657  M 
 H                     2.87435  -8.67031  -2.67544  M 
 O                     3.8265   -8.55802  -2.64197  M 
 H                     4.04918  -7.97833  -3.38393  M 
 H                    -4.27063  -0.53349  -7.86805  M 
 O                    -4.81174   0.19505  -7.52722  M 
 H                    -4.16033   0.86294  -7.21328  M 
 H                     1.14747   3.77865   6.70406  M 
 O                     1.91965   3.21585   6.90847  M 
 H                     2.70861   3.77598   6.78883  M 
 H                    -11.25404  -3.10115   0.0209   M 
 O                    -10.86403  -2.45261   0.60731  M 
 H                    -10.15038  -2.02604   0.10084  M 
 H                    -7.5242    1.66053   7.6352   M 
 O                    -8.03372   2.48003   7.55842  M 
 H                    -8.16533   2.80576   8.44828  M 
 H                     7.08275  -8.84271  -1.57328  H 
 O                     6.81604  -8.83159  -2.53049  H 
 H                     5.9086   -9.16733  -2.54887  H 
 H                     6.32646   5.55748  -0.75627  M 
 O                     6.99417   4.92381  -1.03861  M 
 H                     7.20925   4.39532  -0.2432   M 
 H                    -5.2659   -3.08303   5.84183  M 
 O                    -5.3124   -2.32506   6.46563  M 
 H                    -4.67348  -2.55491   7.16235  M 
 H                     2.51569   1.58466   7.48908  M 
 O                     3.02044   0.76408   7.39617  M 
 H                     2.71463   0.36916   6.55253  M 
 H                    -2.60438  -2.97081   7.04882  M 
 O                    -3.08375  -3.1305    7.89041  M 
 H                    -2.47654  -2.77917   8.55768  M 
 H                     5.65376   2.28413   6.6811   M 
 O                     5.40553   1.39963   6.40621  M 
 H                     4.52792   1.20818   6.799    M 
 H                     2.13849  -4.25338   4.10416  M 
 O                     2.61993  -4.17301   4.94047  M 
 H                     3.34602  -4.81487   4.85351  M 
 H                     10.49543  -2.21175  -1.82098  M 
 O                     10.99467  -2.21407  -0.95765  M 
 H                     11.9198  -2.12759  -1.18144  M 
 H                     3.46671   8.49705  -2.82351  M 
 O                     2.76378   9.03943  -2.44502  M 
 H                     2.60654   8.67619  -1.55435  M 
 H                    -7.90793  -6.78319   0.3672   M 
 O                    -8.57393  -6.38648  -0.21751  M 
 H                    -8.56112  -5.43713   0.05744  M 
 H                    -1.20416   9.68914  -3.18462  M 
 O                    -2.14832   9.81233  -2.97014  M 
 H                    -2.21784   9.92279  -2.01939  M 
 H                     3.89272   4.24819  -3.73051  M 
 O                     3.30698   5.01098  -3.74797  M 
 H                     3.83455   5.80828  -3.53402  M 
 H                     4.83249   6.86053  -1.91304  M 
 O                     4.75191   7.07231  -2.86342  M 
 H                     5.54766   6.75202  -3.30735  M 
 H                    -0.64505   5.16658   6.13963  M 
 O                     0.0947    4.72359   5.70029  M 
 H                     0.75623   5.39825   5.41378  M 
 H                     2.91806   5.71042   5.19687  M 
 O                     2.13557   6.11998   4.79885  M 
 H                     2.09583   5.79224   3.88639  M 
 H                    -7.61107   8.69525  -0.0868   M 
 O                    -7.31254   8.4895   -0.98244  M 
 H                    -7.03928   7.55547  -0.96002  M 
 H                    -1.1156   -5.06612   3.57251  M 
 O                    -0.67463  -4.948     2.70049  M 
 H                     0.25427  -5.17622   2.79146  M 
 H                     4.29702  -1.95155   6.23893  M 
 O                     4.30375  -2.10196   5.26912  M 
 H                     3.61629  -2.77688   5.09401  M 
 H                     7.31229  -5.83438   3.21976  H 
 O                     7.72271  -5.4467    4.01119  H 
 H                     7.20165  -4.62719   4.15353  H 
 H                     9.20638  -4.40634   3.88552  M 
 O                     9.80706  -3.64968   3.7558   M 
 H                     9.51007  -2.96448   4.36751  M 
 H                     2.64743   8.14403  -7.99164  M 
 O                     2.67671   7.60354  -7.20351  M 
 H                     1.79941   7.71336  -6.76229  M 
 H                    -0.55906  -1.34444   8.12473  M 
 O                    -0.73638  -1.99204   8.8213   M 
 H                     0.00106  -2.60796   8.79015  M 
 H                     8.1139    4.90248  -2.23373  M 
 O                     8.78847   4.96007  -2.95872  M 
 H                     9.48986   5.5053   -2.60222  M 
 H                     6.1193    5.03271  -5.13437  M 
 O                     6.42627   5.43767  -4.30158  M 
 H                     7.37963   5.32137  -4.21916  M 
 H                     10.49476   2.6876   -4.16669  M 
 O                     9.76808   2.54392  -3.56237  M 
 H                     9.34777   3.41695  -3.39389  M 
 H                     3.22932  -2.28561   7.89201  M 
 O                     4.03884  -1.73839   7.89521  M 
 H                     3.72096  -0.8264    7.97893  M 
 H                    -2.38842  -1.99545  -8.76306  M 
 O                    -2.81047  -1.6848   -7.96303  M 
 H                    -2.12516  -1.20288  -7.45146  M 
 H                     4.82134   5.6451    1.58111  M 
 O                     4.64246   5.0762    2.34051  M 
 H                     3.67313   5.05881   2.44253  M 
 H                    -3.51733  -6.40702  -4.82503  M 
 O                    -2.73419  -5.85779  -4.90368  M 
 H                    -2.9988   -5.09006  -5.4347   M 
 H                    -6.86235   5.88337   4.99969  M 
 O                    -6.46397   6.72766   4.71834  M 
 H                    -6.33098   6.65503   3.74714  M 
 H                    -7.66186   3.80875   6.20947  M 
 O                    -7.42293   4.25389   5.38675  M 
 H                    -7.14715   3.54126   4.7877   M 
 H                    -7.7104    9.18945   2.5492   M 
 O                    -7.48725   9.59549   1.68661  M 
 H                    -7.99269   10.40785   1.64153  M 
 H                    -5.68155  -7.175     1.71189  M 
 O                    -6.32374  -6.57029   1.30858  M 
 H                    -5.80873  -6.10208   0.61689  M 
 H                    -3.5776   -4.86632   7.64487  M 
 O                    -3.77516  -5.7184    7.21623  M 
 H                    -2.97476  -5.95283   6.73233  M 
 H                     9.46359   1.29033  -0.5555   M 
 O                     9.47046   2.24826  -0.73387  M 
 H                     9.77178   2.33571  -1.64433  M 
 H                    -7.79444  -4.53188   3.29262  M 
 O                    -6.85769  -4.75405   3.29186  M 
 H                    -6.70347  -5.38546   2.56003  M 
 H                     1.14147  -2.24561   6.91737  M 
 O                     1.67661  -2.96362   7.27271  M 
 H                     1.91041  -3.52283   6.51538  M 
 H                    -3.36557  -2.96614  -6.80415  M 
 O                    -3.74906  -3.61327  -6.19411  M 
 H                    -4.70279  -3.52435  -6.27315  M 
 H                    -9.08951   8.00188   3.9575   M 
 O                    -8.323     8.56799   4.05966  M 
 H                    -7.61829   8.00213   4.43971  M 
 H                     8.04979  -1.69536  -5.18686  M 
 O                     7.11657  -1.47757  -5.20064  M 
 H                     6.67636  -2.1454   -4.64041  M 
 H                    -4.68818  -5.1142    5.80626  M 
 O                    -4.76211  -4.52957   5.02676  M 
 H                    -5.51508  -4.81009   4.48677  M 
 
 ITRead=  0  0  0  0  0  0  0  0  0  0  0  0  0  0  0  0  0  0  0  0
 ITRead=  0  0  0  0  0  0  0  0  0  0  0  0  0  0  0  0  0  0  0  0
 ITRead=  0  0  0  0  0  0  0  0  0  0  0  0  0  0  0  0  0  0  0  0
 ITRead=  0  0  0  0  0  0  0  0  0  0  0  0  0  0  0  0  0  0  0  0
 ITRead=  0  0  0  0  0  0  0  0  0  0  0  0  0  0  0  0  0  0  0  0
 ITRead=  0  0  0  0  0  0  0  0  0  0  0  0  0  0  0  0  0  0  0  0
 ITRead=  0  0  0  0  0  0  0  0  0  0  0  0  0  0  0  0  0  0  0  0
 ITRead=  0  0  0  0  0  0  0  0  0  0  0  0  0  0  0  0  0  0  0  0
 ITRead=  0  0  0  0  0  0  0  0  0  0  0  0  0  0  0  0  0  0  0  0
 ITRead=  0  0  0  0  0  0  0  0  0  0  0  0  0  0  0  0  0  0  0  0
 ITRead=  0  0  0  0  0  0  0  0  0  0  0  0  0  0  0  0  0  0  0  0
 ITRead=  0  0  0  0  0  0  0  0  0  0  0  0  0  0  0  0  0  0  0  0
 ITRead=  0  0  0  0  0  0  0  0  0  0  0  0  0  0  0  0  0  0  0  0
 ITRead=  0  0  0  0  0  0  0  0  0  0  0  0  0  0  0  0  0  0  0  0
 ITRead=  0  0  0  0  0  0  0  0  0  0  0  0  0  0  0  0  0  0  0  0
 ITRead=  0  0  0  0  0  0  0  0  0  0  0  0  0  0  0  0  0  0  0  0
 ITRead=  0  0  0  0  0  0  0  0  0  0  0  0  0  0  0  0  0  0  0  0
 ITRead=  0  0  0  0  0  0  0  0  0  0  0  0  0  0  0  0  0  0  0  0
 ITRead=  0  0  0  0  0  0  0  0  0  0  0  0  0  0  0  0  0  0  0  0
 ITRead=  0  0  0  0  0  0  0  0  0  0  0  0  0  0  0  0  0  0  0  0
 ITRead=  0  0  0  0  0  0  0  0  0  0  0  0  0  0  0  0  0  0  0  0
 ITRead=  0  0  0  0  0  0  0  0  0  0  0  0  0  0  0  0  0  0  0  0
 ITRead=  0  0  0  0  0  0  0  0  0  0  0  0  0  0  0  0  0  0  0  0
 ITRead=  0  0  0  0  0  0  0  0  0  0  0  0  0  0  0  0  0  0  0  0
 ITRead=  0  0  0  0  0  0  0  0  0  0  0  0  0  0  0  0  0  0  0  0
 ITRead=  0  0  0  0  0  0  0  0  0  0  0  0  0  0  0  0  0  0  0  0
 ITRead=  0  0  0  0  0  0  0  0  0  0  0  0  0  0  0  0  0  0  0  0
 ITRead=  0  0  0  0  0  0  0  0  0  0  0  0  0  0  0  0  0  0  0  0
 ITRead=  0  0  0  0  0  0  0  0  0  0  0  0  0  0  0  0  0  0  0  0
 ITRead=  0  0  0  0  0  0  0  0  0  0  0  0  0  0  0  0  0  0  0  0
 MicOpt= -1 -1 -1 -1 -1 -1 -1 -1 -1 -1 -1 -1 -1 -1 -1 -1 -1 -1 -1 -1
 MicOpt= -1 -1 -1 -1 -1 -1 -1 -1 -1 -1 -1 -1 -1 -1 -1 -1 -1 -1 -1 -1
 MicOpt= -1 -1 -1 -1 -1 -1 -1 -1 -1 -1 -1 -1 -1 -1 -1 -1 -1 -1 -1 -1
 MicOpt= -1 -1 -1 -1 -1 -1 -1 -1 -1 -1 -1 -1 -1 -1 -1 -1 -1 -1 -1 -1
 MicOpt= -1 -1 -1 -1 -1 -1 -1 -1 -1 -1 -1 -1 -1 -1 -1 -1 -1 -1 -1 -1
 MicOpt= -1 -1 -1 -1 -1 -1 -1 -1 -1 -1 -1 -1 -1 -1 -1 -1 -1 -1 -1 -1
 MicOpt= -1 -1 -1 -1 -1 -1 -1 -1 -1 -1 -1 -1 -1 -1 -1 -1 -1 -1 -1 -1
 MicOpt= -1 -1 -1 -1 -1 -1 -1 -1 -1 -1 -1 -1 -1 -1 -1 -1 -1 -1 -1 -1
 MicOpt= -1 -1 -1 -1 -1 -1 -1 -1 -1 -1 -1 -1 -1 -1 -1 -1 -1 -1 -1 -1
 MicOpt= -1 -1 -1 -1 -1 -1 -1 -1 -1 -1 -1 -1 -1 -1 -1 -1 -1 -1 -1 -1
 MicOpt= -1 -1 -1 -1 -1 -1 -1 -1 -1 -1 -1 -1 -1 -1 -1 -1 -1 -1 -1 -1
 MicOpt= -1 -1 -1 -1 -1 -1 -1 -1 -1 -1 -1 -1 -1 -1 -1 -1 -1 -1 -1 -1
 MicOpt= -1 -1 -1 -1 -1 -1 -1 -1 -1 -1 -1 -1 -1 -1 -1 -1 -1 -1 -1 -1
 MicOpt= -1 -1 -1 -1 -1 -1 -1 -1 -1 -1 -1 -1 -1 -1 -1 -1 -1 -1 -1 -1
 MicOpt= -1 -1 -1 -1 -1 -1 -1 -1 -1 -1 -1 -1 -1 -1 -1 -1 -1 -1 -1 -1
 MicOpt= -1 -1 -1 -1 -1 -1 -1 -1 -1 -1 -1 -1 -1 -1 -1 -1 -1 -1 -1 -1
 MicOpt= -1 -1 -1 -1 -1 -1 -1 -1 -1 -1 -1 -1 -1 -1 -1 -1 -1 -1 -1 -1
 MicOpt= -1 -1 -1 -1 -1 -1 -1 -1 -1 -1 -1 -1 -1 -1 -1 -1 -1 -1 -1 -1
 MicOpt= -1 -1 -1 -1 -1 -1 -1 -1 -1 -1 -1 -1 -1 -1 -1 -1 -1 -1 -1 -1
 MicOpt= -1 -1 -1 -1 -1 -1 -1 -1 -1 -1 -1 -1 -1 -1 -1 -1 -1 -1 -1 -1
 MicOpt= -1 -1 -1 -1 -1 -1 -1 -1 -1 -1 -1 -1 -1 -1 -1 -1 -1 -1 -1 -1
 MicOpt= -1 -1 -1 -1 -1 -1 -1 -1 -1 -1 -1 -1 -1 -1 -1 -1 -1 -1 -1 -1
 MicOpt= -1 -1 -1 -1 -1 -1 -1 -1 -1 -1 -1 -1 -1 -1 -1 -1 -1 -1 -1 -1
 MicOpt= -1 -1 -1 -1 -1 -1 -1 -1 -1 -1 -1 -1 -1 -1 -1 -1 -1 -1 -1 -1
 MicOpt= -1 -1 -1 -1 -1 -1 -1 -1 -1 -1 -1 -1 -1 -1 -1 -1 -1 -1 -1 -1
 MicOpt= -1 -1 -1 -1 -1 -1 -1 -1 -1 -1 -1 -1 -1 -1 -1 -1 -1 -1 -1 -1
 MicOpt= -1 -1 -1 -1 -1 -1 -1 -1 -1 -1 -1 -1 -1 -1 -1 -1 -1 -1 -1 -1
 MicOpt= -1 -1 -1 -1 -1 -1 -1 -1 -1 -1 -1 -1 -1 -1 -1 -1 -1 -1 -1 -1
 MicOpt= -1 -1 -1 -1 -1 -1 -1 -1 -1 -1 -1 -1 -1 -1 -1 -1 -1 -1 -1 -1
 MicOpt= -1 -1 -1 -1 -1 -1 -1 -1 -1 -1 -1 -1 -1 -1 -1 -1 -1 -1 -1 -1
 NAtoms=    600 NQM=      600 NQMF=       0 NMMI=      0 NMMIF=      0
                NMic=       0 NMicF=      0.
                    Isotopes and Nuclear Properties:
 (Nuclear quadrupole moments (NQMom) in fm**2, nuclear magnetic moments (NMagM)
  in nuclear magnetons)

  Atom         1           2           3           4           5           6           7           8           9          10
 IAtWgt=           1          16           1           1          16           1           1          16           1           1
 AtmWgt=   1.0078250  15.9949146   1.0078250   1.0078250  15.9949146   1.0078250   1.0078250  15.9949146   1.0078250   1.0078250
 NucSpn=           1           0           1           1           0           1           1           0           1           1
 AtZEff=  -0.0000000  -0.0000000  -0.0000000  -0.0000000  -0.0000000  -0.0000000  -0.0000000  -0.0000000  -0.0000000  -0.0000000
 NQMom=    0.0000000   0.0000000   0.0000000   0.0000000   0.0000000   0.0000000   0.0000000   0.0000000   0.0000000   0.0000000
 NMagM=    2.7928460   0.0000000   2.7928460   2.7928460   0.0000000   2.7928460   2.7928460   0.0000000   2.7928460   2.7928460
 AtZNuc=   1.0000000   8.0000000   1.0000000   1.0000000   8.0000000   1.0000000   1.0000000   8.0000000   1.0000000   1.0000000

  Atom        11          12          13          14          15          16          17          18          19          20
 IAtWgt=          16           1           1          16           1           1          16           1           1          16
 AtmWgt=  15.9949146   1.0078250   1.0078250  15.9949146   1.0078250   1.0078250  15.9949146   1.0078250   1.0078250  15.9949146
 NucSpn=           0           1           1           0           1           1           0           1           1           0
 AtZEff=  -0.0000000  -0.0000000  -0.0000000  -0.0000000  -0.0000000  -0.0000000  -0.0000000  -0.0000000  -0.0000000  -0.0000000
 NQMom=    0.0000000   0.0000000   0.0000000   0.0000000   0.0000000   0.0000000   0.0000000   0.0000000   0.0000000   0.0000000
 NMagM=    0.0000000   2.7928460   2.7928460   0.0000000   2.7928460   2.7928460   0.0000000   2.7928460   2.7928460   0.0000000
 AtZNuc=   8.0000000   1.0000000   1.0000000   8.0000000   1.0000000   1.0000000   8.0000000   1.0000000   1.0000000   8.0000000

  Atom        21          22          23          24          25          26          27          28          29          30
 IAtWgt=           1           1          16           1           1          16           1           1          16           1
 AtmWgt=   1.0078250   1.0078250  15.9949146   1.0078250   1.0078250  15.9949146   1.0078250   1.0078250  15.9949146   1.0078250
 NucSpn=           1           1           0           1           1           0           1           1           0           1
 AtZEff=  -0.0000000  -0.0000000  -0.0000000  -0.0000000  -0.0000000  -0.0000000  -0.0000000  -0.0000000  -0.0000000  -0.0000000
 NQMom=    0.0000000   0.0000000   0.0000000   0.0000000   0.0000000   0.0000000   0.0000000   0.0000000   0.0000000   0.0000000
 NMagM=    2.7928460   2.7928460   0.0000000   2.7928460   2.7928460   0.0000000   2.7928460   2.7928460   0.0000000   2.7928460
 AtZNuc=   1.0000000   1.0000000   8.0000000   1.0000000   1.0000000   8.0000000   1.0000000   1.0000000   8.0000000   1.0000000

  Atom        31          32          33          34          35          36          37          38          39          40
 IAtWgt=           1          16           1           1          16           1           1          16           1           1
 AtmWgt=   1.0078250  15.9949146   1.0078250   1.0078250  15.9949146   1.0078250   1.0078250  15.9949146   1.0078250   1.0078250
 NucSpn=           1           0           1           1           0           1           1           0           1           1
 AtZEff=  -0.0000000  -0.0000000  -0.0000000  -0.0000000  -0.0000000  -0.0000000  -0.0000000  -0.0000000  -0.0000000  -0.0000000
 NQMom=    0.0000000   0.0000000   0.0000000   0.0000000   0.0000000   0.0000000   0.0000000   0.0000000   0.0000000   0.0000000
 NMagM=    2.7928460   0.0000000   2.7928460   2.7928460   0.0000000   2.7928460   2.7928460   0.0000000   2.7928460   2.7928460
 AtZNuc=   1.0000000   8.0000000   1.0000000   1.0000000   8.0000000   1.0000000   1.0000000   8.0000000   1.0000000   1.0000000

  Atom        41          42          43          44          45          46          47          48          49          50
 IAtWgt=          16           1           1          16           1           1          16           1           1          16
 AtmWgt=  15.9949146   1.0078250   1.0078250  15.9949146   1.0078250   1.0078250  15.9949146   1.0078250   1.0078250  15.9949146
 NucSpn=           0           1           1           0           1           1           0           1           1           0
 AtZEff=  -0.0000000  -0.0000000  -0.0000000  -0.0000000  -0.0000000  -0.0000000  -0.0000000  -0.0000000  -0.0000000  -0.0000000
 NQMom=    0.0000000   0.0000000   0.0000000   0.0000000   0.0000000   0.0000000   0.0000000   0.0000000   0.0000000   0.0000000
 NMagM=    0.0000000   2.7928460   2.7928460   0.0000000   2.7928460   2.7928460   0.0000000   2.7928460   2.7928460   0.0000000
 AtZNuc=   8.0000000   1.0000000   1.0000000   8.0000000   1.0000000   1.0000000   8.0000000   1.0000000   1.0000000   8.0000000

  Atom        51          52          53          54          55          56          57          58          59          60
 IAtWgt=           1           1          16           1           1          16           1           1          16           1
 AtmWgt=   1.0078250   1.0078250  15.9949146   1.0078250   1.0078250  15.9949146   1.0078250   1.0078250  15.9949146   1.0078250
 NucSpn=           1           1           0           1           1           0           1           1           0           1
 AtZEff=  -0.0000000  -0.0000000  -0.0000000  -0.0000000  -0.0000000  -0.0000000  -0.0000000  -0.0000000  -0.0000000  -0.0000000
 NQMom=    0.0000000   0.0000000   0.0000000   0.0000000   0.0000000   0.0000000   0.0000000   0.0000000   0.0000000   0.0000000
 NMagM=    2.7928460   2.7928460   0.0000000   2.7928460   2.7928460   0.0000000   2.7928460   2.7928460   0.0000000   2.7928460
 AtZNuc=   1.0000000   1.0000000   8.0000000   1.0000000   1.0000000   8.0000000   1.0000000   1.0000000   8.0000000   1.0000000

  Atom        61          62          63          64          65          66          67          68          69          70
 IAtWgt=           1          16           1           1          16           1           1          16           1           1
 AtmWgt=   1.0078250  15.9949146   1.0078250   1.0078250  15.9949146   1.0078250   1.0078250  15.9949146   1.0078250   1.0078250
 NucSpn=           1           0           1           1           0           1           1           0           1           1
 AtZEff=  -0.0000000  -0.0000000  -0.0000000  -0.0000000  -0.0000000  -0.0000000  -0.0000000  -0.0000000  -0.0000000  -0.0000000
 NQMom=    0.0000000   0.0000000   0.0000000   0.0000000   0.0000000   0.0000000   0.0000000   0.0000000   0.0000000   0.0000000
 NMagM=    2.7928460   0.0000000   2.7928460   2.7928460   0.0000000   2.7928460   2.7928460   0.0000000   2.7928460   2.7928460
 AtZNuc=   1.0000000   8.0000000   1.0000000   1.0000000   8.0000000   1.0000000   1.0000000   8.0000000   1.0000000   1.0000000

  Atom        71          72          73          74          75          76          77          78          79          80
 IAtWgt=          16           1           1          16           1           1          16           1           1          16
 AtmWgt=  15.9949146   1.0078250   1.0078250  15.9949146   1.0078250   1.0078250  15.9949146   1.0078250   1.0078250  15.9949146
 NucSpn=           0           1           1           0           1           1           0           1           1           0
 AtZEff=  -0.0000000  -0.0000000  -0.0000000  -0.0000000  -0.0000000  -0.0000000  -0.0000000  -0.0000000  -0.0000000  -0.0000000
 NQMom=    0.0000000   0.0000000   0.0000000   0.0000000   0.0000000   0.0000000   0.0000000   0.0000000   0.0000000   0.0000000
 NMagM=    0.0000000   2.7928460   2.7928460   0.0000000   2.7928460   2.7928460   0.0000000   2.7928460   2.7928460   0.0000000
 AtZNuc=   8.0000000   1.0000000   1.0000000   8.0000000   1.0000000   1.0000000   8.0000000   1.0000000   1.0000000   8.0000000

  Atom        81          82          83          84          85          86          87          88          89          90
 IAtWgt=           1           1          16           1           1          16           1           1          16           1
 AtmWgt=   1.0078250   1.0078250  15.9949146   1.0078250   1.0078250  15.9949146   1.0078250   1.0078250  15.9949146   1.0078250
 NucSpn=           1           1           0           1           1           0           1           1           0           1
 AtZEff=  -0.0000000  -0.0000000  -0.0000000  -0.0000000  -0.0000000  -0.0000000  -0.0000000  -0.0000000  -0.0000000  -0.0000000
 NQMom=    0.0000000   0.0000000   0.0000000   0.0000000   0.0000000   0.0000000   0.0000000   0.0000000   0.0000000   0.0000000
 NMagM=    2.7928460   2.7928460   0.0000000   2.7928460   2.7928460   0.0000000   2.7928460   2.7928460   0.0000000   2.7928460
 AtZNuc=   1.0000000   1.0000000   8.0000000   1.0000000   1.0000000   8.0000000   1.0000000   1.0000000   8.0000000   1.0000000

  Atom        91          92          93          94          95          96          97          98          99         100
 IAtWgt=           1          16           1           1          16           1           1          16           1           1
 AtmWgt=   1.0078250  15.9949146   1.0078250   1.0078250  15.9949146   1.0078250   1.0078250  15.9949146   1.0078250   1.0078250
 NucSpn=           1           0           1           1           0           1           1           0           1           1
 AtZEff=  -0.0000000  -0.0000000  -0.0000000  -0.0000000  -0.0000000  -0.0000000  -0.0000000  -0.0000000  -0.0000000  -0.0000000
 NQMom=    0.0000000   0.0000000   0.0000000   0.0000000   0.0000000   0.0000000   0.0000000   0.0000000   0.0000000   0.0000000
 NMagM=    2.7928460   0.0000000   2.7928460   2.7928460   0.0000000   2.7928460   2.7928460   0.0000000   2.7928460   2.7928460
 AtZNuc=   1.0000000   8.0000000   1.0000000   1.0000000   8.0000000   1.0000000   1.0000000   8.0000000   1.0000000   1.0000000

  Atom       101         102         103         104         105         106         107         108         109         110
 IAtWgt=          16           1           1          16           1           1          16           1           1          16
 AtmWgt=  15.9949146   1.0078250   1.0078250  15.9949146   1.0078250   1.0078250  15.9949146   1.0078250   1.0078250  15.9949146
 NucSpn=           0           1           1           0           1           1           0           1           1           0
 AtZEff=  -0.0000000  -0.0000000  -0.0000000  -0.0000000  -0.0000000  -0.0000000  -0.0000000  -0.0000000  -0.0000000  -0.0000000
 NQMom=    0.0000000   0.0000000   0.0000000   0.0000000   0.0000000   0.0000000   0.0000000   0.0000000   0.0000000   0.0000000
 NMagM=    0.0000000   2.7928460   2.7928460   0.0000000   2.7928460   2.7928460   0.0000000   2.7928460   2.7928460   0.0000000
 AtZNuc=   8.0000000   1.0000000   1.0000000   8.0000000   1.0000000   1.0000000   8.0000000   1.0000000   1.0000000   8.0000000

  Atom       111         112         113         114         115         116         117         118         119         120
 IAtWgt=           1           1          16           1           1          16           1           1          16           1
 AtmWgt=   1.0078250   1.0078250  15.9949146   1.0078250   1.0078250  15.9949146   1.0078250   1.0078250  15.9949146   1.0078250
 NucSpn=           1           1           0           1           1           0           1           1           0           1
 AtZEff=  -0.0000000  -0.0000000  -0.0000000  -0.0000000  -0.0000000  -0.0000000  -0.0000000  -0.0000000  -0.0000000  -0.0000000
 NQMom=    0.0000000   0.0000000   0.0000000   0.0000000   0.0000000   0.0000000   0.0000000   0.0000000   0.0000000   0.0000000
 NMagM=    2.7928460   2.7928460   0.0000000   2.7928460   2.7928460   0.0000000   2.7928460   2.7928460   0.0000000   2.7928460
 AtZNuc=   1.0000000   1.0000000   8.0000000   1.0000000   1.0000000   8.0000000   1.0000000   1.0000000   8.0000000   1.0000000

  Atom       121         122         123         124         125         126         127         128         129         130
 IAtWgt=           1          16           1           1          16           1           1          16           1           1
 AtmWgt=   1.0078250  15.9949146   1.0078250   1.0078250  15.9949146   1.0078250   1.0078250  15.9949146   1.0078250   1.0078250
 NucSpn=           1           0           1           1           0           1           1           0           1           1
 AtZEff=  -0.0000000  -0.0000000  -0.0000000  -0.0000000  -0.0000000  -0.0000000  -0.0000000  -0.0000000  -0.0000000  -0.0000000
 NQMom=    0.0000000   0.0000000   0.0000000   0.0000000   0.0000000   0.0000000   0.0000000   0.0000000   0.0000000   0.0000000
 NMagM=    2.7928460   0.0000000   2.7928460   2.7928460   0.0000000   2.7928460   2.7928460   0.0000000   2.7928460   2.7928460
 AtZNuc=   1.0000000   8.0000000   1.0000000   1.0000000   8.0000000   1.0000000   1.0000000   8.0000000   1.0000000   1.0000000

  Atom       131         132         133         134         135         136         137         138         139         140
 IAtWgt=          16           1           1          16           1           1          16           1           1          16
 AtmWgt=  15.9949146   1.0078250   1.0078250  15.9949146   1.0078250   1.0078250  15.9949146   1.0078250   1.0078250  15.9949146
 NucSpn=           0           1           1           0           1           1           0           1           1           0
 AtZEff=  -0.0000000  -0.0000000  -0.0000000  -0.0000000  -0.0000000  -0.0000000  -0.0000000  -0.0000000  -0.0000000  -0.0000000
 NQMom=    0.0000000   0.0000000   0.0000000   0.0000000   0.0000000   0.0000000   0.0000000   0.0000000   0.0000000   0.0000000
 NMagM=    0.0000000   2.7928460   2.7928460   0.0000000   2.7928460   2.7928460   0.0000000   2.7928460   2.7928460   0.0000000
 AtZNuc=   8.0000000   1.0000000   1.0000000   8.0000000   1.0000000   1.0000000   8.0000000   1.0000000   1.0000000   8.0000000

  Atom       141         142         143         144         145         146         147         148         149         150
 IAtWgt=           1           1          16           1           1          16           1           1          16           1
 AtmWgt=   1.0078250   1.0078250  15.9949146   1.0078250   1.0078250  15.9949146   1.0078250   1.0078250  15.9949146   1.0078250
 NucSpn=           1           1           0           1           1           0           1           1           0           1
 AtZEff=  -0.0000000  -0.0000000  -0.0000000  -0.0000000  -0.0000000  -0.0000000  -0.0000000  -0.0000000  -0.0000000  -0.0000000
 NQMom=    0.0000000   0.0000000   0.0000000   0.0000000   0.0000000   0.0000000   0.0000000   0.0000000   0.0000000   0.0000000
 NMagM=    2.7928460   2.7928460   0.0000000   2.7928460   2.7928460   0.0000000   2.7928460   2.7928460   0.0000000   2.7928460
 AtZNuc=   1.0000000   1.0000000   8.0000000   1.0000000   1.0000000   8.0000000   1.0000000   1.0000000   8.0000000   1.0000000

  Atom       151         152         153         154         155         156         157         158         159         160
 IAtWgt=           1          16           1           1          16           1           1          16           1           1
 AtmWgt=   1.0078250  15.9949146   1.0078250   1.0078250  15.9949146   1.0078250   1.0078250  15.9949146   1.0078250   1.0078250
 NucSpn=           1           0           1           1           0           1           1           0           1           1
 AtZEff=  -0.0000000  -0.0000000  -0.0000000  -0.0000000  -0.0000000  -0.0000000  -0.0000000  -0.0000000  -0.0000000  -0.0000000
 NQMom=    0.0000000   0.0000000   0.0000000   0.0000000   0.0000000   0.0000000   0.0000000   0.0000000   0.0000000   0.0000000
 NMagM=    2.7928460   0.0000000   2.7928460   2.7928460   0.0000000   2.7928460   2.7928460   0.0000000   2.7928460   2.7928460
 AtZNuc=   1.0000000   8.0000000   1.0000000   1.0000000   8.0000000   1.0000000   1.0000000   8.0000000   1.0000000   1.0000000

  Atom       161         162         163         164         165         166         167         168         169         170
 IAtWgt=          16           1           1          16           1           1          16           1           1          16
 AtmWgt=  15.9949146   1.0078250   1.0078250  15.9949146   1.0078250   1.0078250  15.9949146   1.0078250   1.0078250  15.9949146
 NucSpn=           0           1           1           0           1           1           0           1           1           0
 AtZEff=  -0.0000000  -0.0000000  -0.0000000  -0.0000000  -0.0000000  -0.0000000  -0.0000000  -0.0000000  -0.0000000  -0.0000000
 NQMom=    0.0000000   0.0000000   0.0000000   0.0000000   0.0000000   0.0000000   0.0000000   0.0000000   0.0000000   0.0000000
 NMagM=    0.0000000   2.7928460   2.7928460   0.0000000   2.7928460   2.7928460   0.0000000   2.7928460   2.7928460   0.0000000
 AtZNuc=   8.0000000   1.0000000   1.0000000   8.0000000   1.0000000   1.0000000   8.0000000   1.0000000   1.0000000   8.0000000

  Atom       171         172         173         174         175         176         177         178         179         180
 IAtWgt=           1           1          16           1           1          16           1           1          16           1
 AtmWgt=   1.0078250   1.0078250  15.9949146   1.0078250   1.0078250  15.9949146   1.0078250   1.0078250  15.9949146   1.0078250
 NucSpn=           1           1           0           1           1           0           1           1           0           1
 AtZEff=  -0.0000000  -0.0000000  -0.0000000  -0.0000000  -0.0000000  -0.0000000  -0.0000000  -0.0000000  -0.0000000  -0.0000000
 NQMom=    0.0000000   0.0000000   0.0000000   0.0000000   0.0000000   0.0000000   0.0000000   0.0000000   0.0000000   0.0000000
 NMagM=    2.7928460   2.7928460   0.0000000   2.7928460   2.7928460   0.0000000   2.7928460   2.7928460   0.0000000   2.7928460
 AtZNuc=   1.0000000   1.0000000   8.0000000   1.0000000   1.0000000   8.0000000   1.0000000   1.0000000   8.0000000   1.0000000

  Atom       181         182         183         184         185         186         187         188         189         190
 IAtWgt=           1          16           1           1          16           1           1          16           1           1
 AtmWgt=   1.0078250  15.9949146   1.0078250   1.0078250  15.9949146   1.0078250   1.0078250  15.9949146   1.0078250   1.0078250
 NucSpn=           1           0           1           1           0           1           1           0           1           1
 AtZEff=  -0.0000000  -0.0000000  -0.0000000  -0.0000000  -0.0000000  -0.0000000  -0.0000000  -0.0000000  -0.0000000  -0.0000000
 NQMom=    0.0000000   0.0000000   0.0000000   0.0000000   0.0000000   0.0000000   0.0000000   0.0000000   0.0000000   0.0000000
 NMagM=    2.7928460   0.0000000   2.7928460   2.7928460   0.0000000   2.7928460   2.7928460   0.0000000   2.7928460   2.7928460
 AtZNuc=   1.0000000   8.0000000   1.0000000   1.0000000   8.0000000   1.0000000   1.0000000   8.0000000   1.0000000   1.0000000

  Atom       191         192         193         194         195         196         197         198         199         200
 IAtWgt=          16           1           1          16           1           1          16           1           1          16
 AtmWgt=  15.9949146   1.0078250   1.0078250  15.9949146   1.0078250   1.0078250  15.9949146   1.0078250   1.0078250  15.9949146
 NucSpn=           0           1           1           0           1           1           0           1           1           0
 AtZEff=  -0.0000000  -0.0000000  -0.0000000  -0.0000000  -0.0000000  -0.0000000  -0.0000000  -0.0000000  -0.0000000  -0.0000000
 NQMom=    0.0000000   0.0000000   0.0000000   0.0000000   0.0000000   0.0000000   0.0000000   0.0000000   0.0000000   0.0000000
 NMagM=    0.0000000   2.7928460   2.7928460   0.0000000   2.7928460   2.7928460   0.0000000   2.7928460   2.7928460   0.0000000
 AtZNuc=   8.0000000   1.0000000   1.0000000   8.0000000   1.0000000   1.0000000   8.0000000   1.0000000   1.0000000   8.0000000

  Atom       201         202         203         204         205         206         207         208         209         210
 IAtWgt=           1           1          16           1           1          16           1           1          16           1
 AtmWgt=   1.0078250   1.0078250  15.9949146   1.0078250   1.0078250  15.9949146   1.0078250   1.0078250  15.9949146   1.0078250
 NucSpn=           1           1           0           1           1           0           1           1           0           1
 AtZEff=  -0.0000000  -0.0000000  -0.0000000  -0.0000000  -0.0000000  -0.0000000  -0.0000000  -0.0000000  -0.0000000  -0.0000000
 NQMom=    0.0000000   0.0000000   0.0000000   0.0000000   0.0000000   0.0000000   0.0000000   0.0000000   0.0000000   0.0000000
 NMagM=    2.7928460   2.7928460   0.0000000   2.7928460   2.7928460   0.0000000   2.7928460   2.7928460   0.0000000   2.7928460
 AtZNuc=   1.0000000   1.0000000   8.0000000   1.0000000   1.0000000   8.0000000   1.0000000   1.0000000   8.0000000   1.0000000

  Atom       211         212         213         214         215         216         217         218         219         220
 IAtWgt=           1          16           1           1          16           1           1          16           1           1
 AtmWgt=   1.0078250  15.9949146   1.0078250   1.0078250  15.9949146   1.0078250   1.0078250  15.9949146   1.0078250   1.0078250
 NucSpn=           1           0           1           1           0           1           1           0           1           1
 AtZEff=  -0.0000000  -0.0000000  -0.0000000  -0.0000000  -0.0000000  -0.0000000  -0.0000000  -0.0000000  -0.0000000  -0.0000000
 NQMom=    0.0000000   0.0000000   0.0000000   0.0000000   0.0000000   0.0000000   0.0000000   0.0000000   0.0000000   0.0000000
 NMagM=    2.7928460   0.0000000   2.7928460   2.7928460   0.0000000   2.7928460   2.7928460   0.0000000   2.7928460   2.7928460
 AtZNuc=   1.0000000   8.0000000   1.0000000   1.0000000   8.0000000   1.0000000   1.0000000   8.0000000   1.0000000   1.0000000

  Atom       221         222         223         224         225         226         227         228         229         230
 IAtWgt=          16           1           1          16           1           1          16           1           1          16
 AtmWgt=  15.9949146   1.0078250   1.0078250  15.9949146   1.0078250   1.0078250  15.9949146   1.0078250   1.0078250  15.9949146
 NucSpn=           0           1           1           0           1           1           0           1           1           0
 AtZEff=  -0.0000000  -0.0000000  -0.0000000  -0.0000000  -0.0000000  -0.0000000  -0.0000000  -0.0000000  -0.0000000  -0.0000000
 NQMom=    0.0000000   0.0000000   0.0000000   0.0000000   0.0000000   0.0000000   0.0000000   0.0000000   0.0000000   0.0000000
 NMagM=    0.0000000   2.7928460   2.7928460   0.0000000   2.7928460   2.7928460   0.0000000   2.7928460   2.7928460   0.0000000
 AtZNuc=   8.0000000   1.0000000   1.0000000   8.0000000   1.0000000   1.0000000   8.0000000   1.0000000   1.0000000   8.0000000

  Atom       231         232         233         234         235         236         237         238         239         240
 IAtWgt=           1           1          16           1           1          16           1           1          16           1
 AtmWgt=   1.0078250   1.0078250  15.9949146   1.0078250   1.0078250  15.9949146   1.0078250   1.0078250  15.9949146   1.0078250
 NucSpn=           1           1           0           1           1           0           1           1           0           1
 AtZEff=  -0.0000000  -0.0000000  -0.0000000  -0.0000000  -0.0000000  -0.0000000  -0.0000000  -0.0000000  -0.0000000  -0.0000000
 NQMom=    0.0000000   0.0000000   0.0000000   0.0000000   0.0000000   0.0000000   0.0000000   0.0000000   0.0000000   0.0000000
 NMagM=    2.7928460   2.7928460   0.0000000   2.7928460   2.7928460   0.0000000   2.7928460   2.7928460   0.0000000   2.7928460
 AtZNuc=   1.0000000   1.0000000   8.0000000   1.0000000   1.0000000   8.0000000   1.0000000   1.0000000   8.0000000   1.0000000

  Atom       241         242         243         244         245         246         247         248         249         250
 IAtWgt=           1          16           1           1          16           1           1          16           1           1
 AtmWgt=   1.0078250  15.9949146   1.0078250   1.0078250  15.9949146   1.0078250   1.0078250  15.9949146   1.0078250   1.0078250
 NucSpn=           1           0           1           1           0           1           1           0           1           1
 AtZEff=  -0.0000000  -0.0000000  -0.0000000  -0.0000000  -0.0000000  -0.0000000  -0.0000000  -0.0000000  -0.0000000  -0.0000000
 NQMom=    0.0000000   0.0000000   0.0000000   0.0000000   0.0000000   0.0000000   0.0000000   0.0000000   0.0000000   0.0000000
 NMagM=    2.7928460   0.0000000   2.7928460   2.7928460   0.0000000   2.7928460   2.7928460   0.0000000   2.7928460   2.7928460
 AtZNuc=   1.0000000   8.0000000   1.0000000   1.0000000   8.0000000   1.0000000   1.0000000   8.0000000   1.0000000   1.0000000

  Atom       251         252         253         254         255         256         257         258         259         260
 IAtWgt=          16           1           1          16           1           1          16           1           1          16
 AtmWgt=  15.9949146   1.0078250   1.0078250  15.9949146   1.0078250   1.0078250  15.9949146   1.0078250   1.0078250  15.9949146
 NucSpn=           0           1           1           0           1           1           0           1           1           0
 AtZEff=  -0.0000000  -0.0000000  -0.0000000  -0.0000000  -0.0000000  -0.0000000  -0.0000000  -0.0000000  -0.0000000  -0.0000000
 NQMom=    0.0000000   0.0000000   0.0000000   0.0000000   0.0000000   0.0000000   0.0000000   0.0000000   0.0000000   0.0000000
 NMagM=    0.0000000   2.7928460   2.7928460   0.0000000   2.7928460   2.7928460   0.0000000   2.7928460   2.7928460   0.0000000
 AtZNuc=   8.0000000   1.0000000   1.0000000   8.0000000   1.0000000   1.0000000   8.0000000   1.0000000   1.0000000   8.0000000

  Atom       261         262         263         264         265         266         267         268         269         270
 IAtWgt=           1           1          16           1           1          16           1           1          16           1
 AtmWgt=   1.0078250   1.0078250  15.9949146   1.0078250   1.0078250  15.9949146   1.0078250   1.0078250  15.9949146   1.0078250
 NucSpn=           1           1           0           1           1           0           1           1           0           1
 AtZEff=  -0.0000000  -0.0000000  -0.0000000  -0.0000000  -0.0000000  -0.0000000  -0.0000000  -0.0000000  -0.0000000  -0.0000000
 NQMom=    0.0000000   0.0000000   0.0000000   0.0000000   0.0000000   0.0000000   0.0000000   0.0000000   0.0000000   0.0000000
 NMagM=    2.7928460   2.7928460   0.0000000   2.7928460   2.7928460   0.0000000   2.7928460   2.7928460   0.0000000   2.7928460
 AtZNuc=   1.0000000   1.0000000   8.0000000   1.0000000   1.0000000   8.0000000   1.0000000   1.0000000   8.0000000   1.0000000

  Atom       271         272         273         274         275         276         277         278         279         280
 IAtWgt=           1          16           1           1          16           1           1          16           1           1
 AtmWgt=   1.0078250  15.9949146   1.0078250   1.0078250  15.9949146   1.0078250   1.0078250  15.9949146   1.0078250   1.0078250
 NucSpn=           1           0           1           1           0           1           1           0           1           1
 AtZEff=  -0.0000000  -0.0000000  -0.0000000  -0.0000000  -0.0000000  -0.0000000  -0.0000000  -0.0000000  -0.0000000  -0.0000000
 NQMom=    0.0000000   0.0000000   0.0000000   0.0000000   0.0000000   0.0000000   0.0000000   0.0000000   0.0000000   0.0000000
 NMagM=    2.7928460   0.0000000   2.7928460   2.7928460   0.0000000   2.7928460   2.7928460   0.0000000   2.7928460   2.7928460
 AtZNuc=   1.0000000   8.0000000   1.0000000   1.0000000   8.0000000   1.0000000   1.0000000   8.0000000   1.0000000   1.0000000

  Atom       281         282         283         284         285         286         287         288         289         290
 IAtWgt=          16           1           1          16           1           1          16           1           1          16
 AtmWgt=  15.9949146   1.0078250   1.0078250  15.9949146   1.0078250   1.0078250  15.9949146   1.0078250   1.0078250  15.9949146
 NucSpn=           0           1           1           0           1           1           0           1           1           0
 AtZEff=  -0.0000000  -0.0000000  -0.0000000  -0.0000000  -0.0000000  -0.0000000  -0.0000000  -0.0000000  -0.0000000  -0.0000000
 NQMom=    0.0000000   0.0000000   0.0000000   0.0000000   0.0000000   0.0000000   0.0000000   0.0000000   0.0000000   0.0000000
 NMagM=    0.0000000   2.7928460   2.7928460   0.0000000   2.7928460   2.7928460   0.0000000   2.7928460   2.7928460   0.0000000
 AtZNuc=   8.0000000   1.0000000   1.0000000   8.0000000   1.0000000   1.0000000   8.0000000   1.0000000   1.0000000   8.0000000

  Atom       291         292         293         294         295         296         297         298         299         300
 IAtWgt=           1           1          16           1           1          16           1           1          16           1
 AtmWgt=   1.0078250   1.0078250  15.9949146   1.0078250   1.0078250  15.9949146   1.0078250   1.0078250  15.9949146   1.0078250
 NucSpn=           1           1           0           1           1           0           1           1           0           1
 AtZEff=  -0.0000000  -0.0000000  -0.0000000  -0.0000000  -0.0000000  -0.0000000  -0.0000000  -0.0000000  -0.0000000  -0.0000000
 NQMom=    0.0000000   0.0000000   0.0000000   0.0000000   0.0000000   0.0000000   0.0000000   0.0000000   0.0000000   0.0000000
 NMagM=    2.7928460   2.7928460   0.0000000   2.7928460   2.7928460   0.0000000   2.7928460   2.7928460   0.0000000   2.7928460
 AtZNuc=   1.0000000   1.0000000   8.0000000   1.0000000   1.0000000   8.0000000   1.0000000   1.0000000   8.0000000   1.0000000

  Atom       301         302         303         304         305         306         307         308         309         310
 IAtWgt=           1          16           1           1          16           1           1          16           1           1
 AtmWgt=   1.0078250  15.9949146   1.0078250   1.0078250  15.9949146   1.0078250   1.0078250  15.9949146   1.0078250   1.0078250
 NucSpn=           1           0           1           1           0           1           1           0           1           1
 AtZEff=  -0.0000000  -0.0000000  -0.0000000  -0.0000000  -0.0000000  -0.0000000  -0.0000000  -0.0000000  -0.0000000  -0.0000000
 NQMom=    0.0000000   0.0000000   0.0000000   0.0000000   0.0000000   0.0000000   0.0000000   0.0000000   0.0000000   0.0000000
 NMagM=    2.7928460   0.0000000   2.7928460   2.7928460   0.0000000   2.7928460   2.7928460   0.0000000   2.7928460   2.7928460
 AtZNuc=   1.0000000   8.0000000   1.0000000   1.0000000   8.0000000   1.0000000   1.0000000   8.0000000   1.0000000   1.0000000

  Atom       311         312         313         314         315         316         317         318         319         320
 IAtWgt=          16           1           1          16           1           1          16           1           1          16
 AtmWgt=  15.9949146   1.0078250   1.0078250  15.9949146   1.0078250   1.0078250  15.9949146   1.0078250   1.0078250  15.9949146
 NucSpn=           0           1           1           0           1           1           0           1           1           0
 AtZEff=  -0.0000000  -0.0000000  -0.0000000  -0.0000000  -0.0000000  -0.0000000  -0.0000000  -0.0000000  -0.0000000  -0.0000000
 NQMom=    0.0000000   0.0000000   0.0000000   0.0000000   0.0000000   0.0000000   0.0000000   0.0000000   0.0000000   0.0000000
 NMagM=    0.0000000   2.7928460   2.7928460   0.0000000   2.7928460   2.7928460   0.0000000   2.7928460   2.7928460   0.0000000
 AtZNuc=   8.0000000   1.0000000   1.0000000   8.0000000   1.0000000   1.0000000   8.0000000   1.0000000   1.0000000   8.0000000

  Atom       321         322         323         324         325         326         327         328         329         330
 IAtWgt=           1           1          16           1           1          16           1           1          16           1
 AtmWgt=   1.0078250   1.0078250  15.9949146   1.0078250   1.0078250  15.9949146   1.0078250   1.0078250  15.9949146   1.0078250
 NucSpn=           1           1           0           1           1           0           1           1           0           1
 AtZEff=  -0.0000000  -0.0000000  -0.0000000  -0.0000000  -0.0000000  -0.0000000  -0.0000000  -0.0000000  -0.0000000  -0.0000000
 NQMom=    0.0000000   0.0000000   0.0000000   0.0000000   0.0000000   0.0000000   0.0000000   0.0000000   0.0000000   0.0000000
 NMagM=    2.7928460   2.7928460   0.0000000   2.7928460   2.7928460   0.0000000   2.7928460   2.7928460   0.0000000   2.7928460
 AtZNuc=   1.0000000   1.0000000   8.0000000   1.0000000   1.0000000   8.0000000   1.0000000   1.0000000   8.0000000   1.0000000

  Atom       331         332         333         334         335         336         337         338         339         340
 IAtWgt=           1          16           1           1          16           1           1          16           1           1
 AtmWgt=   1.0078250  15.9949146   1.0078250   1.0078250  15.9949146   1.0078250   1.0078250  15.9949146   1.0078250   1.0078250
 NucSpn=           1           0           1           1           0           1           1           0           1           1
 AtZEff=  -0.0000000  -0.0000000  -0.0000000  -0.0000000  -0.0000000  -0.0000000  -0.0000000  -0.0000000  -0.0000000  -0.0000000
 NQMom=    0.0000000   0.0000000   0.0000000   0.0000000   0.0000000   0.0000000   0.0000000   0.0000000   0.0000000   0.0000000
 NMagM=    2.7928460   0.0000000   2.7928460   2.7928460   0.0000000   2.7928460   2.7928460   0.0000000   2.7928460   2.7928460
 AtZNuc=   1.0000000   8.0000000   1.0000000   1.0000000   8.0000000   1.0000000   1.0000000   8.0000000   1.0000000   1.0000000

  Atom       341         342         343         344         345         346         347         348         349         350
 IAtWgt=          16           1           1          16           1           1          16           1           1          16
 AtmWgt=  15.9949146   1.0078250   1.0078250  15.9949146   1.0078250   1.0078250  15.9949146   1.0078250   1.0078250  15.9949146
 NucSpn=           0           1           1           0           1           1           0           1           1           0
 AtZEff=  -0.0000000  -0.0000000  -0.0000000  -0.0000000  -0.0000000  -0.0000000  -0.0000000  -0.0000000  -0.0000000  -0.0000000
 NQMom=    0.0000000   0.0000000   0.0000000   0.0000000   0.0000000   0.0000000   0.0000000   0.0000000   0.0000000   0.0000000
 NMagM=    0.0000000   2.7928460   2.7928460   0.0000000   2.7928460   2.7928460   0.0000000   2.7928460   2.7928460   0.0000000
 AtZNuc=   8.0000000   1.0000000   1.0000000   8.0000000   1.0000000   1.0000000   8.0000000   1.0000000   1.0000000   8.0000000

  Atom       351         352         353         354         355         356         357         358         359         360
 IAtWgt=           1           1          16           1           1          16           1           1          16           1
 AtmWgt=   1.0078250   1.0078250  15.9949146   1.0078250   1.0078250  15.9949146   1.0078250   1.0078250  15.9949146   1.0078250
 NucSpn=           1           1           0           1           1           0           1           1           0           1
 AtZEff=  -0.0000000  -0.0000000  -0.0000000  -0.0000000  -0.0000000  -0.0000000  -0.0000000  -0.0000000  -0.0000000  -0.0000000
 NQMom=    0.0000000   0.0000000   0.0000000   0.0000000   0.0000000   0.0000000   0.0000000   0.0000000   0.0000000   0.0000000
 NMagM=    2.7928460   2.7928460   0.0000000   2.7928460   2.7928460   0.0000000   2.7928460   2.7928460   0.0000000   2.7928460
 AtZNuc=   1.0000000   1.0000000   8.0000000   1.0000000   1.0000000   8.0000000   1.0000000   1.0000000   8.0000000   1.0000000

  Atom       361         362         363         364         365         366         367         368         369         370
 IAtWgt=           1          16           1           1          16           1           1          16           1           1
 AtmWgt=   1.0078250  15.9949146   1.0078250   1.0078250  15.9949146   1.0078250   1.0078250  15.9949146   1.0078250   1.0078250
[...]
 9772,2.647963,2.311894\H,0,-2.223748,3.022325,2.800278\H,0,2.503618,0.
 451764,-2.929209\O,0,1.928546,-0.211144,-2.495465\H,0,1.011981,0.05763
 8,-2.699119\H,0,-1.18868,0.349443,-3.584196\O,0,-0.404983,0.863563,-3.
 298275\H,0,-0.679841,1.443163,-2.568874\H,0,2.662505,-0.418544,0.57244
 2\O,0,2.606512,-1.164127,-0.059901\H,0,2.321972,-0.788714,-0.915063\H,
 0,-2.862008,-0.544566,-0.584023\O,0,-2.979094,-1.003972,-1.426067\H,0,
 -3.757282,-1.586279,-1.3542\H,0,2.726774,1.432199,-0.782109\O,0,1.8859
 24,1.907693,-0.660575\H,0,1.200068,1.227319,-0.49162\H,0,0.391259,3.28
 0012,-3.200956\O,0,1.317023,3.135392,-2.964815\H,0,1.340036,2.668125,-
 2.109963\H,0,0.262108,-3.929445,-0.571577\O,0,0.05914,-4.618943,-1.242
 542\H,0,-0.700738,-5.112293,-0.857729\H,0,-6.365763,1.884787,3.045587\
 O,0,-6.432015,2.07739,4.017612\H,0,-7.15843,1.514944,4.35144\H,0,1.267
 843,-3.632835,1.282579\O,0,0.825923,-2.9978,0.68987\H,0,1.47727,-2.311
 16,0.441097\H,0,-3.157256,5.147661,-0.944174\O,0,-2.941658,4.355657,-0
 .416722\H,0,-3.81272,3.948861,-0.226612\H,0,-5.481739,-1.474957,1.6855
 97\O,0,-5.23741,-0.822608,0.994886\H,0,-5.324802,-1.281001,0.15368\H,0
 ,-0.235752,-3.190147,3.027155\O,0,0.039019,-2.369092,3.470055\H,0,0.97
 7661,-2.228464,3.264382\H,0,5.164255,1.311523,-1.145445\O,0,4.402425,0
 .746998,-0.951721\H,0,4.648904,0.337916,-0.092414\H,0,0.593308,2.46438
 ,1.08149\O,0,0.601664,2.120287,1.983993\H,0,0.023761,1.336653,2.029653
 \H,0,4.431238,-0.242301,-2.320818\O,0,4.654948,-0.715573,-3.153888\H,0
 ,5.106761,-0.047199,-3.709965\H,0,2.871508,3.4424,-0.960359\O,0,3.7325
 17,3.880444,-0.935573\H,0,4.227935,3.615166,-1.733984\H,0,-5.842723,-1
 .69092,-1.901527\O,0,-5.283481,-2.369663,-1.465183\H,0,-5.166835,-3.07
 8399,-2.121451\H,0,-4.768991,-4.234415,1.222224\O,0,-5.483205,-3.63125
 ,0.943194\H,0,-5.264977,-3.3334,0.049832\H,0,2.583227,2.33643,-3.63622
 4\O,0,3.286392,1.68773,-3.845648\H,0,3.357223,1.657847,-4.805386\H,0,-
 5.350631,3.647672,3.777117\O,0,-4.804795,4.262747,3.275847\H,0,-4.3015
 18,4.813534,3.912905\H,0,0.561502,1.111703,-4.710545\O,0,1.057694,1.02
 3417,-5.550249\H,0,1.693865,0.294457,-5.396223\H,0,0.748413,5.89048,-2
 .232287\O,0,1.554861,5.595085,-1.775943\H,0,2.126443,5.175671,-2.44918
 1\H,0,-2.671611,-3.53919,-1.806895\O,0,-2.811304,-3.800367,-0.880796\H
 ,0,-3.547504,-4.427744,-0.856085\H,0,1.825779,5.33004,-4.488161\O,0,0.
 947522,5.384442,-4.903225\H,0,0.965029,4.691924,-5.59098\H,0,7.650371,
 2.225272,-0.882076\O,0,6.878374,1.832442,-1.328889\H,0,7.266458,1.1694
 13,-1.935304\H,0,4.348453,3.011876,0.37369\O,0,4.698662,2.66308,1.2187
 22\H,0,4.593683,3.404569,1.850635\H,0,1.166438,-3.070174,-2.197984\O,0
 ,2.016281,-2.874185,-2.618769\H,0,2.060155,-1.895504,-2.641861\H,0,0.9
 54455,4.701556,-0.548741\O,0,0.518043,4.206703,0.181315\H,0,-0.18609,4
 .783571,0.527905\H,0,-5.814017,0.778695,1.258614\O,0,-6.334848,1.58347
 2,1.454201\H,0,-7.256533,1.308152,1.215409\H,0,-2.192917,-2.698125,0.2
 46723\O,0,-1.740352,-2.11143,0.882838\H,0,-0.817854,-2.416017,0.877565
 \H,0,-3.691059,-0.510191,4.27591\O,0,-3.67748,-0.649796,5.250374\H,0,-
 4.405524,-1.262635,5.501623\H,0,-5.965899,-3.121391,3.202982\O,0,-5.55
 9102,-2.2442,3.298287\H,0,-4.597515,-2.429449,3.293805\H,0,-2.873957,-
 0.461943,-2.995752\O,0,-2.609087,-0.508385,-3.941479\H,0,-2.410591,-1.
 467771,-4.025954\H,0,-3.327726,-3.473229,-3.744331\O,0,-2.485212,-3.05
 6579,-3.497425\H,0,-1.766263,-3.660757,-3.770836\H,0,3.233837,-0.94758
 7,-4.272037\O,0,2.6868,-1.083066,-5.069065\H,0,3.325443,-1.219226,-5.7
 8746\H,0,4.534957,2.637263,-6.592018\O,0,4.041215,1.792187,-6.61218\H,
 0,3.194072,1.992984,-7.018567\H,0,-4.250532,0.756892,5.798812\O,0,-4.7
 67411,1.559049,6.067615\H,0,-5.341688,1.7636,5.302026\H,0,-3.973595,-0
 .253608,2.007999\O,0,-3.448509,0.076803,2.757013\H,0,-3.408311,1.05181
 1,2.683722\H,0,-5.852241,0.381009,-2.23211\O,0,-6.366101,-0.302122,-2.
 710274\H,0,-5.935279,-0.371627,-3.584167\H,0,2.018656,-3.660387,-4.164
 919\O,0,1.979106,-4.112228,-5.030123\H,0,1.625424,-4.997475,-4.841338\
 H,0,4.587584,-3.32449,-0.690852\O,0,4.842436,-2.570993,-0.109688\H,0,4
 .054559,-1.977256,-0.104725\H,0,-0.407592,3.054802,-0.859101\O,0,-1.13
 9439,2.651243,-1.355145\H,0,-1.881865,3.275806,-1.218344\H,0,1.542084,
 4.488602,1.615241\O,0,1.992066,4.63351,2.467697\H,0,1.835177,3.831802,
 2.990732\H,0,3.618972,1.356868,1.659251\O,0,2.87552,0.742441,1.814361\
 H,0,2.077366,1.290269,1.94697\H,0,3.278652,-3.760143,-2.128597\O,0,4.0
 06541,-4.350942,-1.816557\H,0,4.680543,-4.344122,-2.513161\H,0,5.09857
 4,-3.477282,-4.569012\O,0,5.519095,-3.148778,-3.736412\H,0,5.07058,-2.
 31699,-3.48329\H,0,-1.323764,5.017819,2.181313\O,0,-1.526932,5.572603,
 1.392295\H,0,-2.140765,5.055414,0.809476\H,0,-5.850564,2.958909,0.5259
 58\O,0,-5.421764,3.488955,-0.172826\H,0,-5.910501,4.325445,-0.316206\H
 ,0,5.155063,-3.626785,2.876351\O,0,4.395729,-3.481727,2.306048\H,0,4.7
 12121,-3.166325,1.429322\H,0,5.861636,-1.018597,1.32297\O,0,5.425126,-
 0.144087,1.325401\H,0,6.182281,0.471009,1.378109\H,0,1.860898,-6.53734
 6,-3.126903\O,0,1.687121,-6.741337,-4.070813\H,0,2.567603,-6.785528,-4
 .4749\H,0,-7.071933,-3.902394,0.747449\O,0,-8.039411,-3.936689,0.54717
 3\H,0,-8.50576,-3.77557,1.396125\H,0,3.307003,-2.283274,2.768193\O,0,2
 .595581,-1.646113,2.96733\H,0,2.780211,-0.826207,2.474538\H,0,-2.05672
 ,2.570465,5.138147\O,0,-2.800839,3.180719,5.295181\H,0,-3.518638,2.640
 2,5.676334\H,0,-0.878438,0.85403,4.008748\O,0,-0.780182,1.401075,4.820
 402\H,0,0.037954,1.892841,4.69129\H,0,0.075716,3.574962,-6.878777\O,0,
 1.038253,3.417525,-6.76035\H,0,1.092201,2.562303,-6.292833\H,0,7.24022
 4,-2.55829,4.66497\O,0,6.507466,-3.040424,4.212512\H,0,5.685522,-2.726
 889,4.660983\H,0,7.890886,1.8547,1.409188\O,0,7.849805,0.919612,1.6861
 75\H,0,8.358626,0.395886,1.040078\H,0,-4.098875,-0.575678,-4.65867\O,0
 ,-5.025618,-0.651848,-4.993235\H,0,-5.030868,-0.266731,-5.890862\H,0,6
 .464825,-1.06685,-2.198263\O,0,6.895029,-1.514877,-1.464537\H,0,6.1761
 8,-1.824584,-0.881351\H,0,4.709959,-0.637783,4.419258\O,0,5.090464,0.1
 28302,3.95779\H,0,5.041209,-0.025787,2.990393\H,0,-0.189373,3.30697,2.
 929355\O,0,-0.844798,3.929734,3.302939\H,0,-0.545393,4.191255,4.195064
 \H,0,8.253031,-0.798462,-0.747016\O,0,9.025445,-0.399697,-0.288205\H,0
 ,9.752719,-1.030038,-0.381452\H,0,9.756822,-3.339844,2.091594\O,0,9.44
 9352,-3.120829,1.181133\H,0,10.230666,-2.929102,0.641742\H,0,-2.30866,
 -2.709666,3.82167\O,0,-2.929445,-2.814136,3.090857\H,0,-2.489786,-2.45
 695,2.278413\H,0,-2.235095,0.799205,-6.260262\O,0,-2.895316,1.519511,-
 6.289817\H,0,-3.154734,1.679863,-5.358654\H,0,-1.44072,3.893057,-5.453
 206\O,0,-1.563031,3.865194,-6.43063\H,0,-2.119134,3.080112,-6.582652\H
 ,0,-4.35569,-6.378091,-1.2221\O,0,-4.860426,-5.6576,-0.815606\H,0,-5.6
 36609,-5.509981,-1.397663\H,0,2.898361,-5.609533,-1.564422\O,0,2.11163
 9,-6.186069,-1.490812\H,0,1.324667,-5.589033,-1.373137\H,0,3.430514,-3
 .987735,-5.699974\O,0,4.389214,-3.929043,-5.966946\H,0,4.466101,-3.182
 563,-6.566983\H,0,7.294151,3.812014,2.08527\O,0,7.226028,3.460074,1.18
 8718\H,0,6.310406,3.090682,1.133505\H,0,6.749307,-3.532317,0.26282\O,0
 ,7.309074,-4.303267,0.051731\H,0,8.171178,-4.026634,0.448534\H,0,-7.32
 9929,-4.675588,-2.505807\O,0,-7.059637,-5.596798,-2.295297\H,0,-7.6664
 94,-5.903891,-1.5949\H,0,-4.701943,6.563425,5.014617\O,0,-3.801619,6.2
 70764,4.777314\H,0,-3.308874,6.07618,5.589116\H,0,7.082465,3.860641,4.
 855283\O,0,7.097534,3.469577,3.971893\H,0,7.391907,2.54761,4.097414\H,
 0,-5.852365,0.596795,6.957625\O,0,-6.596615,0.017903,7.243374\H,0,-6.2
 81001,-0.889335,7.096796\H,0,-0.290085,-4.793994,-2.964139\O,0,-0.4676
 38,-4.690493,-3.91663\H,0,-1.023917,-5.427908,-4.198709\H,0,6.67261,0.
 538118,4.322778\O,0,7.633811,0.770896,4.280552\H,0,7.846196,0.752174,3
 .320655\H,0,5.040802,-6.31139,-3.983208\O,0,4.355595,-6.509809,-4.6591
 85\H,0,4.458027,-5.828381,-5.330931\H,0,-5.864162,-2.033442,-5.260332\
 O,0,-6.44569,-2.822656,-5.379941\H,0,-7.317112,-2.437136,-5.655751\H,0
 ,-7.706217,0.278106,6.035507\O,0,-8.283333,0.593543,5.2947\H,0,-8.9220
 66,1.188314,5.691217\H,0,-5.507976,5.525127,2.362644\O,0,-5.785674,6.4
 28915,2.108895\H,0,-4.950565,6.941114,2.095081\H,0,5.660468,1.960056,-
 3.995808\O,0,5.933806,1.194819,-4.547082\H,0,5.435391,1.27189,-5.36314
 \H,0,-6.182062,6.231199,0.455183\O,0,-6.200095,6.015423,-0.500644\H,0,
 -5.3225,6.295612,-0.83648\H,0,0.033855,-7.364458,-3.229718\O,0,-0.6597
 87,-7.526492,-2.579308\H,0,-0.244547,-7.864959,-1.777388\H,0,-2.475902
 ,-1.726983,5.505672\O,0,-1.790708,-2.424655,5.639244\H,0,-0.978776,-1.
 922563,5.8405\H,0,7.654404,-4.030149,-1.655055\O,0,7.813838,-4.039572,
 -2.629484\H,0,7.014602,-3.602897,-2.987643\H,0,-8.724823,-3.235619,-3.
 305985\O,0,-7.807577,-3.116366,-2.968536\H,0,-7.272977,-2.895069,-3.74
 632\H,0,8.932363,-2.804761,-2.96535\O,0,9.53489,-2.050209,-3.141224\H,
 0,8.994032,-1.245886,-3.043182\H,0,-4.898883,-5.094813,-3.633974\O,0,-
 4.906945,-4.132565,-3.494219\H,0,-5.44477,-3.756242,-4.201727\H,0,-3.8
 7064,3.932581,-3.478489\O,0,-3.618538,4.795176,-3.110465\H,0,-3.93865,
 5.485263,-3.692701\H,0,-0.50283,4.823472,-3.994956\O,0,-1.126912,4.100
 695,-3.804342\H,0,-1.929171,4.505721,-3.417347\H,0,-1.783466,-4.180284
 ,5.315305\O,0,-2.037734,-5.050362,4.969945\H,0,-2.976521,-4.94591,4.73
 5419\H,0,-2.823454,8.358249,-3.655694\O,0,-2.984278,7.3994,-3.770872\H
 ,0,-2.777685,7.181829,-4.706564\H,0,-3.338835,7.181703,3.320379\O,0,-3
 .276719,7.390502,2.373172\H,0,-2.649261,6.731274,2.012595\H,0,4.708709
 ,1.771557,4.19487\O,0,4.510128,2.720065,4.037794\H,0,5.366009,3.123071
 ,3.798816\H,0,7.931156,-1.429712,6.21173\O,0,8.378863,-1.599851,5.3597
 1\H,0,8.295723,-0.748949,4.884751\H,0,6.068786,-1.27841,7.733185\O,0,6
 .74867,-0.722142,7.340135\H,0,6.255762,0.014381,6.913799\H,0,-2.040837
 ,5.680644,-6.402379\O,0,-2.217329,6.61225,-6.199713\H,0,-1.36697,7.077
 287,-6.294485\H,0,-8.201909,-0.558,3.963969\O,0,-7.995429,-1.077418,3.
 17423\H,0,-7.076129,-1.384819,3.269891\H,0,-8.550196,-0.207412,0.21472
 2\O,0,-8.607455,0.423488,0.951488\H,0,-8.553892,-0.126816,1.751433\H,0
 ,0.837323,-0.523797,5.898808\O,0,0.010052,-0.640055,6.421871\H,0,-0.52
 8674,0.112119,6.120414\H,0,-0.820163,7.045132,-1.589616\O,0,-0.762126,
 6.67061,-2.491466\H,0,-1.626194,6.834833,-2.932173\H,0,0.91076,-7.9534
 59,0.498433\O,0,0.014172,-8.238281,0.26378\H,0,-0.427657,-8.330521,1.1
 35236\H,0,1.869151,2.747287,5.262677\O,0,1.889273,2.475173,4.320726\H,
 0,2.827343,2.543437,4.065836\H,0,-7.771457,-5.758358,-5.553365\O,0,-6.
 883439,-5.572521,-5.900186\H,0,-6.772452,-4.614839,-5.837049\H,0,3.340
 524,-7.406294,0.986507\O,0,2.44107,-7.074249,0.944938\H,0,2.348571,-6.
 737574,0.015218\H,0,3.011339,5.944033,-7.369951\O,0,3.207116,4.99152,-
 7.500089\H,0,2.399446,4.502771,-7.278023\H,0,-0.865835,6.986471,0.5796
 4\O,0,-0.593031,7.710473,-0.008845\H,0,-1.298827,8.370153,0.050283\H,0
 ,4.243558,3.840088,5.247422\O,0,4.130653,4.476741,5.993917\H,0,5.00951
 7,4.575296,6.369578\H,0,7.490756,3.119573,6.816869\O,0,6.925454,3.9341
 21,6.749417\H,0,7.383223,4.61171,7.245718\H,0,4.352597,-7.704217,-1.06
 0786\O,0,4.750212,-6.991209,-0.530476\H,0,5.280497,-6.518083,-1.208954
 \H,0,6.949565,-5.599678,-2.777707\O,0,6.201196,-6.234694,-2.772396\H,0
 ,6.565237,-7.158337,-2.760554\H,0,-8.923051,-2.507043,3.001221\O,0,-9.
 37139,-3.344423,2.758408\H,0,-10.122341,-3.067953,2.206026\H,0,-3.1020
 7,8.649528,1.090672\O,0,-2.978774,9.020009,0.200871\H,0,-3.800089,9.54
 6496,0.037053\H,0,8.038622,0.987546,7.343332\O,0,8.348443,1.703259,6.7
 77796\H,0,8.211468,1.378404,5.871104\H,0,-2.615818,4.975428,7.716171\O
 ,0,-2.346324,5.213475,6.830216\H,0,-2.503834,4.404529,6.25718\H,0,-6.0
 52681,-6.609184,-3.367762\O,0,-5.378251,-6.768906,-4.052857\H,0,-5.833
 373,-6.496174,-4.878623\H,0,6.871746,-2.467729,2.64575\O,0,6.97916,-2.
 204407,1.713009\H,0,7.928176,-2.219397,1.526216\H,0,1.984556,6.850675,
 -0.77974\O,0,2.207978,7.596104,-0.178221\H,0,1.350591,7.892693,0.15123
 2\H,0,-3.907941,-7.458795,-2.935267\O,0,-3.34318,-7.484321,-2.154359\H
 ,0,-2.42912,-7.562327,-2.482678\H,0,0.52569,6.828639,-5.575815\O,0,0.3
 1374,7.695735,-5.99356\H,0,0.304451,8.322266,-5.24068\H,0,-8.242521,-1
 .941978,-1.657773\O,0,-8.544049,-1.694149,-0.769878\H,0,-8.278178,-2.4
 75837,-0.234988\H,0,-3.630648,7.025515,-2.119886\O,0,-3.717859,6.83409
 5,-1.176344\H,0,-3.450349,7.645613,-0.69604\H,0,2.982727,-4.416008,2.2
 75567\O,0,2.084349,-4.799283,2.284282\H,0,2.17818,-5.681656,1.86754\H,
 0,-8.840221,-1.057463,-5.009484\O,0,-8.728377,-1.623545,-5.808612\H,0,
 -8.471291,-1.006257,-6.516124\H,0,7.48288,0.356801,-3.925737\O,0,8.130
 385,0.347354,-3.201656\H,0,8.77206,1.044297,-3.399199\H,0,3.877275,6.8
 96002,-0.036317\O,0,4.612905,6.294349,-0.234434\H,0,4.190438,5.439639,
 -0.473856\H,0,-8.005759,-0.127867,-3.186728\O,0,-8.904042,-0.147809,-3
 .576974\H,0,-9.494086,-0.415577,-2.871066\H,0,5.897157,4.134247,-3.262
 995\O,0,5.458266,3.325809,-2.939588\H,0,6.065518,2.922437,-2.27518\H,0
 ,-1.070153,-6.932631,0.04744\O,0,-1.719038,-6.21787,-0.117578\H,0,-2.2
 99395,-6.543001,-0.812678\H,0,-3.65103,-7.931681,0.944951\O,0,-3.88785
 5,-7.692935,1.844204\H,0,-3.715271,-6.72372,1.91551\H,0,-2.678374,-5.1
 82898,1.139749\O,0,-3.392729,-5.100438,1.792443\H,0,-3.138642,-4.37627
 5,2.399676\H,0,5.496915,-5.970622,4.748948\O,0,4.732943,-5.749528,4.21
 3633\H,0,5.020946,-5.83172,3.288815\H,0,-9.338922,-6.5467,-3.920502\O,
 0,-9.376278,-6.081139,-4.787546\H,0,-9.996246,-6.575674,-5.323927\H,0,
 6.50143,-5.416963,1.155345\O,0,6.010978,-6.068787,1.707432\H,0,5.47109
 5,-6.53203,1.0308\H,0,-1.107618,-6.784775,2.522563\O,0,-1.20636,-7.750
 239,2.574737\H,0,-2.160307,-7.91612,2.565372\H,0,-9.940287,-4.400813,-
 4.483467\O,0,-10.108869,-3.483543,-4.209375\H,0,-9.902086,-2.918405,-4
 .96613\H,0,0.061483,8.029598,-3.19047\O,0,0.343953,8.880563,-3.586182\
 H,0,1.238653,9.057899,-3.228436\H,0,-8.794118,-8.286751,-2.552745\O,0,
 -9.415379,-7.557027,-2.547022\H,0,-9.313022,-7.124813,-1.679835\H,0,2.
 018572,0.742682,4.579517\O,0,2.154158,-0.106804,5.0411\H,0,2.392096,-0
 .771865,4.360981\H,0,-6.622503,0.196661,-7.57177\O,0,-7.584062,0.24022
 9,-7.441882\H,0,-7.777268,1.132541,-7.151715\H,0,6.0014,4.248681,-7.26
 4127\O,0,5.417081,4.154928,-6.511786\H,0,4.550663,4.577966,-6.800519\H
 ,0,-5.827209,10.073311,0.740514\O,0,-5.338902,10.12122,-0.092262\H,0,-
 5.904228,9.61745,-0.710548\H,0,-0.80744,-1.076515,-5.757429\O,0,-1.001
 46,-0.422982,-6.464297\H,0,-0.242443,0.18888,-6.409585\H,0,4.704266,-0
 .149079,-6.950471\O,0,4.828714,-1.079597,-6.735144\H,0,5.679391,-1.146
 585,-6.266569\H,0,2.874353,-8.670312,-2.675443\O,0,3.8265,-8.558015,-2
 .641972\H,0,4.049177,-7.978332,-3.383929\H,0,-4.270629,-0.533486,-7.86
 8054\O,0,-4.811738,0.195052,-7.527216\H,0,-4.16033,0.862942,-7.213284\
 H,0,1.147469,3.778652,6.704061\O,0,1.919652,3.21585,6.90847\H,0,2.7086
 14,3.775984,6.788827\H,0,-11.254035,-3.101146,0.020903\O,0,-10.864032,
 -2.452613,0.607314\H,0,-10.150385,-2.026042,0.100836\H,0,-7.524204,1.6
 60534,7.635198\O,0,-8.033724,2.480025,7.558425\H,0,-8.165333,2.805759,
 8.448278\H,0,7.082753,-8.842707,-1.573284\O,0,6.816043,-8.83159,-2.530
 489\H,0,5.908595,-9.167328,-2.548874\H,0,6.326459,5.557476,-0.756268\O
 ,0,6.994166,4.923807,-1.038607\H,0,7.20925,4.395321,-0.243203\H,0,-5.2
 65903,-3.083025,5.841825\O,0,-5.312396,-2.325063,6.46563\H,0,-4.673476
 ,-2.554911,7.162346\H,0,2.515687,1.584655,7.489082\O,0,3.020441,0.7640
 75,7.39617\H,0,2.714627,0.369162,6.55253\H,0,-2.604377,-2.970813,7.048
 824\O,0,-3.083746,-3.130505,7.89041\H,0,-2.47654,-2.779167,8.55768\H,0
 ,5.653763,2.284134,6.681099\O,0,5.40553,1.399634,6.406208\H,0,4.527918
 ,1.208184,6.799004\H,0,2.138488,-4.253376,4.104159\O,0,2.619934,-4.173
 014,4.940467\H,0,3.346016,-4.814868,4.853506\H,0,10.495426,-2.211748,-
 1.820984\O,0,10.994669,-2.214074,-0.957654\H,0,11.919798,-2.12759,-1.1
 81443\H,0,3.466707,8.497053,-2.823508\O,0,2.763776,9.039432,-2.445016\
 H,0,2.606536,8.676194,-1.554347\H,0,-7.907933,-6.783185,0.367201\O,0,-
 8.57393,-6.386476,-0.217505\H,0,-8.561115,-5.437133,0.057438\H,0,-1.20
 4163,9.689138,-3.184617\O,0,-2.148321,9.81233,-2.970135\H,0,-2.217842,
 9.922789,-2.019387\H,0,3.892721,4.248186,-3.730508\O,0,3.306981,5.0109
 78,-3.747971\H,0,3.834549,5.808279,-3.534016\H,0,4.832485,6.860529,-1.
 913037\O,0,4.751913,7.072305,-2.863422\H,0,5.547656,6.752021,-3.307354
 \H,0,-0.645049,5.166581,6.139633\O,0,0.094704,4.723589,5.70029\H,0,0.7
 56232,5.398245,5.41378\H,0,2.918058,5.71042,5.196869\O,0,2.135572,6.11
 9985,4.798851\H,0,2.095832,5.792238,3.886386\H,0,-7.611071,8.695247,-0
 .086801\O,0,-7.312541,8.489498,-0.982439\H,0,-7.039283,7.555473,-0.960
 023\H,0,-1.115598,-5.066121,3.572506\O,0,-0.674627,-4.948001,2.700486\
 H,0,0.254274,-5.17622,2.791458\H,0,4.29702,-1.951552,6.238933\O,0,4.30
 3746,-2.101955,5.269123\H,0,3.616291,-2.776883,5.094013\H,0,7.312286,-
 5.834378,3.219757\O,0,7.722715,-5.4467,4.011191\H,0,7.201648,-4.627189
 ,4.153529\H,0,9.206378,-4.406338,3.885517\O,0,9.80706,-3.649675,3.7557
 97\H,0,9.510072,-2.964478,4.367505\H,0,2.647433,8.144029,-7.991639\O,0
 ,2.676705,7.603536,-7.203511\H,0,1.799405,7.71336,-6.76229\H,0,-0.5590
 57,-1.34444,8.124728\O,0,-0.736378,-1.99204,8.821295\H,0,0.001064,-2.6
 07955,8.790148\H,0,8.113899,4.90248,-2.233726\O,0,8.788467,4.960069,-2
 .958716\H,0,9.489863,5.505295,-2.602219\H,0,6.119297,5.032714,-5.13437
 4\O,0,6.426267,5.437673,-4.30158\H,0,7.379628,5.321368,-4.219158\H,0,1
 0.494761,2.687595,-4.166691\O,0,9.768083,2.543915,-3.562365\H,0,9.3477
 74,3.416945,-3.393888\H,0,3.22932,-2.285614,7.892005\O,0,4.038838,-1.7
 38393,7.895208\H,0,3.720956,-0.826402,7.978928\H,0,-2.388423,-1.995446
 ,-8.763057\O,0,-2.810466,-1.684799,-7.963026\H,0,-2.125165,-1.202881,-
 7.451461\H,0,4.82134,5.645104,1.581109\O,0,4.642459,5.076198,2.340513\
 H,0,3.673134,5.05881,2.442527\H,0,-3.517331,-6.407022,-4.825029\O,0,-2
 .734186,-5.857788,-4.903682\H,0,-2.998802,-5.090064,-5.434701\H,0,-6.8
 62353,5.88337,4.999692\O,0,-6.463969,6.727655,4.718339\H,0,-6.33098,6.
 65503,3.74714\H,0,-7.661858,3.808752,6.209467\O,0,-7.422933,4.253892,5
 .386749\H,0,-7.147153,3.541257,4.787695\H,0,-7.710397,9.189454,2.54919
 8\O,0,-7.487245,9.595487,1.686611\H,0,-7.992693,10.407854,1.641534\H,0
 ,-5.681546,-7.175002,1.711887\O,0,-6.323743,-6.570294,1.308581\H,0,-5.
 808726,-6.102085,0.61689\H,0,-3.577599,-4.866323,7.644867\O,0,-3.77515
 9,-5.718395,7.216234\H,0,-2.974756,-5.952832,6.732325\H,0,9.46359,1.29
 0327,-0.555499\O,0,9.47046,2.248259,-0.733873\H,0,9.771778,2.335712,-1
 .644333\H,0,-7.794438,-4.531879,3.292622\O,0,-6.857686,-4.754052,3.291
 86\H,0,-6.703471,-5.385461,2.560032\H,0,1.141471,-2.245614,6.917372\O,
 0,1.676614,-2.963617,7.272713\H,0,1.910407,-3.522833,6.515377\H,0,-3.3
 65573,-2.96614,-6.804151\O,0,-3.749057,-3.613266,-6.194114\H,0,-4.7027
 86,-3.52435,-6.273147\H,0,-9.089507,8.001885,3.957503\O,0,-8.322995,8.
 567994,4.059664\H,0,-7.618294,8.002131,4.439706\H,0,8.049795,-1.695363
 ,-5.186857\O,0,7.116572,-1.477574,-5.200639\H,0,6.676357,-2.145404,-4.
 640407\H,0,-4.688177,-5.114197,5.806258\O,0,-4.76211,-4.529574,5.02676
 4\H,0,-5.515076,-4.81009,4.486769\\Version=ES64L-G16RevB.01\HF=-40.624
 4958\RMSD=5.300e-09\Dipole=5.0208503,-0.4322011,-2.8755062\Quadrupole=
 21.9904609,-4.8527283,-17.1377326,12.6352438,-2.4850647,14.2193061\PG=
 C01 [X(H400O200)]\\@


 WE SHOULD BE CAREFUL TO GET OUT OF AN EXPERIENCE ONLY THE WISDOM
 THAT IS IN IT -- AND STOP THERE;
 LEST WE BE LIKE THE CAT THAT SITS DOWN ON A HOT STOVE-LID.
 SHE WILL NEVER SIT DOWN ON A HOT STOVE LID AGAIN;
 BUT ALSO SHE WILL NEVER SIT DOWN ON A COLD ONE ANY MORE.

                                                     -- MARK TWAIN
 Job cpu time:       0 days  1 hours 28 minutes 31.6 seconds.
 Elapsed time:       0 days  0 hours  3 minutes 42.4 seconds.
 File lengths (MBytes):  RWF=    291 Int=      0 D2E=      0 Chk=     55 Scr=      1
 Normal termination of Gaussian 16 at Mon Jan 25 15:11:46 2021.
