 Entering Gaussian System, Link 0=g16
 Input=deformation33.com
 Output=deformation33.log
 Initial command:
 /home/spantaleone/g16/l1.exe "/scratch/cnt0027/pag0797/spantaleone/tino/deformation_on_good/33/deformation/Gau-9638.inp" -scrdir="/scratch/cnt0027/pag0797/spantaleone/tino/deformation_on_good/33/deformation/"
 Entering Link 1 = /home/spantaleone/g16/l1.exe PID=      9639.
  
 Copyright (c) 1988-2017, Gaussian, Inc.  All Rights Reserved.
  
 This is part of the Gaussian(R) 16 program.  It is based on
 the Gaussian(R) 09 system (copyright 2009, Gaussian, Inc.),
 the Gaussian(R) 03 system (copyright 2003, Gaussian, Inc.),
 the Gaussian(R) 98 system (copyright 1998, Gaussian, Inc.),
 the Gaussian(R) 94 system (copyright 1995, Gaussian, Inc.),
 the Gaussian 92(TM) system (copyright 1992, Gaussian, Inc.),
 the Gaussian 90(TM) system (copyright 1990, Gaussian, Inc.),
 the Gaussian 88(TM) system (copyright 1988, Gaussian, Inc.),
 the Gaussian 86(TM) system (copyright 1986, Carnegie Mellon
 University), and the Gaussian 82(TM) system (copyright 1983,
 Carnegie Mellon University). Gaussian is a federally registered
 trademark of Gaussian, Inc.
  
 This software contains proprietary and confidential information,
 including trade secrets, belonging to Gaussian, Inc.
  
 This software is provided under written license and may be
 used, copied, transmitted, or stored only in accord with that
 written license.
  
 The following legend is applicable only to US Government
 contracts under FAR:
  
                    RESTRICTED RIGHTS LEGEND
  
 Use, reproduction and disclosure by the US Government is
 subject to restrictions as set forth in subparagraphs (a)
 and (c) of the Commercial Computer Software - Restricted
 Rights clause in FAR 52.227-19.
  
 Gaussian, Inc.
 340 Quinnipiac St., Bldg. 40, Wallingford CT 06492
  
  
 ---------------------------------------------------------------
 Warning -- This program may not be used in any manner that
 competes with the business of Gaussian, Inc. or will provide
 assistance to any competitor of Gaussian, Inc.  The licensee
 of this program is prohibited from giving any competitor of
 Gaussian, Inc. access to this program.  By using this program,
 the user acknowledges that Gaussian, Inc. is engaged in the
 business of creating and licensing software in the field of
 computational chemistry and represents and warrants to the
 licensee that it is not a competitor of Gaussian, Inc. and that
 it will not use this program in any manner prohibited above.
 ---------------------------------------------------------------
  

 Cite this work as:
 Gaussian 16, Revision B.01,
 M. J. Frisch, G. W. Trucks, H. B. Schlegel, G. E. Scuseria, 
 M. A. Robb, J. R. Cheeseman, G. Scalmani, V. Barone, 
 G. A. Petersson, H. Nakatsuji, X. Li, M. Caricato, A. V. Marenich, 
 J. Bloino, B. G. Janesko, R. Gomperts, B. Mennucci, H. P. Hratchian, 
 J. V. Ortiz, A. F. Izmaylov, J. L. Sonnenberg, D. Williams-Young, 
 F. Ding, F. Lipparini, F. Egidi, J. Goings, B. Peng, A. Petrone, 
 T. Henderson, D. Ranasinghe, V. G. Zakrzewski, J. Gao, N. Rega, 
 G. Zheng, W. Liang, M. Hada, M. Ehara, K. Toyota, R. Fukuda, 
 J. Hasegawa, M. Ishida, T. Nakajima, Y. Honda, O. Kitao, H. Nakai, 
 T. Vreven, K. Throssell, J. A. Montgomery, Jr., J. E. Peralta, 
 F. Ogliaro, M. J. Bearpark, J. J. Heyd, E. N. Brothers, K. N. Kudin, 
 V. N. Staroverov, T. A. Keith, R. Kobayashi, J. Normand, 
 K. Raghavachari, A. P. Rendell, J. C. Burant, S. S. Iyengar, 
 J. Tomasi, M. Cossi, J. M. Millam, M. Klene, C. Adamo, R. Cammi, 
 J. W. Ochterski, R. L. Martin, K. Morokuma, O. Farkas, 
 J. B. Foresman, and D. J. Fox, Gaussian, Inc., Wallingford CT, 2016.
 
 ******************************************
 Gaussian 16:  ES64L-G16RevB.01 20-Dec-2017
                25-Jan-2021 
 ******************************************
 %nosave
 %nproc=24
 Will use up to   24 processors via shared memory.
 %mem=24gb
 %chk=input
 ----------------------------------------------------------------------
 #P ONIOM(B97D3/aug-cc-pvtz:external="/home/spantaleone/xtb_6.3.3/xtb-6
 .3.3/scripts/xtb-gaussian")
 ----------------------------------------------------------------------
 1/38=1,52=2,172=1/1;
 2/12=2,17=6,18=5,40=1/2;
 1/38=1,52=2,53=3172/20;
 3/11=9,25=1,30=1,41=9900000,43=2/1;
 4/20=17,24=3,113=1,114=1/2;
 6/7=2,8=2,9=2,10=2/1;
 1/52=2,53=2032/20;
 3/5=16,6=1,7=10,11=2,25=1,30=1,74=-59/1,2,3;
 4//1;
 5/5=2,38=5/2;
 6/7=2,8=2,9=2,10=2,28=1/1;
 1/52=2,53=1022/20;
 3/11=9,25=1,30=1,41=9900000,43=2/1;
 4/20=17,24=3,113=1,114=2/2;
 6/7=2,8=2,9=2,10=2/1;
 1/52=2,53=3014/20;
 99/5=1,9=1/99;
 Leave Link    1 at Mon Jan 25 15:08:05 2021, MaxMem=  3221225472 cpu:               1.3 elap:               0.1
 (Enter /home/spantaleone/g16/l101.exe)
 -----
 Title
 -----
 Symbolic Z-matrix:
 Charge =  0 Multiplicity = 1 for low   level calculation on real  system.
 Charge =  0 Multiplicity = 1 for high  level calculation on model system.
 Charge =  0 Multiplicity = 1 for low   level calculation on model system.
 H                    -1.77537  -0.13621   2.49786  M 
 O                    -0.79661  -0.09797   2.55755  M 
 H                    -0.50409  -0.99133   2.85637  M 
 H                    -0.49695  -1.78006  -2.90734  M 
 O                    -0.54895  -1.82032  -1.93993  M 
 H                    -1.49314  -1.74329  -1.72336  M 
 H                    -2.79177   1.78856   0.94085  M 
 O                    -2.70416   1.16481   0.20056  M 
 H                    -1.93204   1.46774  -0.31071  M 
 H                    -3.86983   1.96696  -2.9049   M 
 O                    -3.37565   2.33523  -3.67441  M 
 H                    -2.46715   2.47105  -3.38577  M 
 H                    -0.16898  -0.59426  -0.82382  M 
 O                    -0.03804   0.12417  -0.17521  M 
 H                    -0.4441   -0.18504   0.6453   M 
 H                     0.81515  -1.78711  -4.86421  M 
 O                    -0.11675  -1.98277  -4.6721   M 
 H                    -0.20072  -2.94669  -4.72564  M 
 H                    -5.03975   2.38865  -1.12634  M 
 O                    -4.67256   1.57501  -1.52349  M 
 H                    -3.98006   1.29028  -0.8808   M 
 H                    -3.5788    3.2893    2.63554  M 
 O                    -2.855     2.68296   2.38633  M 
 H                    -2.07615   3.02472   2.86293  M 
 H                     2.43828   0.3718   -2.99824  M 
 O                     1.84941  -0.27841  -2.56388  M 
 H                     0.93888   0.02638  -2.74195  M 
 H                    -1.26911   0.40545  -3.57525  M 
 O                    -0.46197   0.88785  -3.30003  M 
 H                    -0.70068   1.46699  -2.55749  M 
 H                     2.64223  -0.55091   0.48835  M 
 O                     2.5414   -1.28434  -0.15331  M 
 H                     2.25587  -0.88552  -0.99708  M 
 H                    -2.90751  -0.47145  -0.55225  M 
 O                    -3.05777  -0.91686  -1.39669  M 
 H                    -3.85458  -1.47198  -1.31497  M 
 H                     2.74132   1.31536  -0.84314  M 
 O                     1.91899   1.81743  -0.70193  M 
 H                     1.21447   1.15894  -0.52377  M 
 H                     0.41833   3.27447  -3.18895  M 
 O                     1.34347   3.09446  -2.97607  M 
 H                     1.36939   2.61615  -2.12724  M 
 H                     0.10098  -3.96336  -0.65025  M 
 O                    -0.13868  -4.63913  -1.32427  M 
 H                    -0.90928  -5.10762  -0.92938  M 
 H                    -6.24876   2.02594   3.18351  M 
 O                    -6.28801   2.20754   4.15901  M 
 H                    -7.02589   1.66552   4.50134  M 
 H                     1.1519   -3.72252   1.1865   M 
 O                     0.71951  -3.06828   0.60762  M 
 H                     1.38775  -2.39789   0.35755  M 
 H                    -3.01534   5.23121  -0.8327   M 
 O                    -2.81606   4.42495  -0.32072  M 
 H                    -3.69628   4.04563  -0.11683  M 
 H                    -5.50928  -1.34324   1.76246  M 
 O                    -5.25779  -0.69066   1.07447  M 
 H                    -5.37877  -1.13467   0.22981  M 
 H                    -0.29708  -3.25392   2.96741  M 
 O                     0.01354  -2.44858   3.41459  M 
 H                     0.95262  -2.33622   3.19256  M 
 H                     5.16323   1.11655  -1.26021  M 
 O                     4.38759   0.5739   -1.06105  M 
 H                     4.63727   0.14348  -0.21083  M 
 H                     0.6826    2.39506   1.07668  M 
 O                     0.69666   2.04019   1.97481  M 
 H                     0.09525   1.27476   2.02306  M 
 H                     4.35459  -0.39678  -2.44001  M 
 O                     4.54183  -0.8652   -3.28575  M 
 H                     5.00507  -0.20463  -3.84164  M 
 H                     2.94972   3.32131  -1.00063  M 
 O                     3.82434   3.73209  -0.99096  M 
 H                     4.29413   3.45867  -1.8017   M 
 H                    -5.95325  -1.49857  -1.81866  M 
 O                    -5.40848  -2.20204  -1.40354  M 
 H                    -5.33053  -2.9053   -2.07119  M 
 H                    -4.90146  -4.1189    1.24884  M 
 O                    -5.60071  -3.48878   0.99237  M 
 H                    -5.39102  -3.18591   0.09871  M 
 H                     2.56746   2.26221  -3.68331  M 
 O                     3.24274   1.59243  -3.91701  M 
 H                     3.29266   1.57472  -4.87827  M 
 H                    -5.15824   3.74327   3.91546  M 
 O                    -4.6028    4.34623   3.41007  M 
 H                    -4.0672    4.87085   4.04292  M 
 H                     0.48261   1.12229  -4.72933  M 
 O                     0.95682   1.02734  -5.58103  M 
 H                     1.57138   0.27597  -5.44935  M 
 H                     0.88545   5.85777  -2.1961   M 
 O                     1.69073   5.52926  -1.76098  M 
 H                     2.23356   5.09945  -2.45113  M 
 H                    -2.84665  -3.45439  -1.81614  M 
 O                    -2.97352  -3.72575  -0.89126  M 
 H                    -3.73204  -4.32554  -0.8579   M 
 H                     1.89503   5.29146  -4.4809   M 
 O                     1.01064   5.38122  -4.87646  M 
 H                     0.99002   4.69784  -5.57307  M 
 H                     7.68458   1.93527  -1.0336   M 
 O                     6.89264   1.58393  -1.47808  M 
 H                     7.24307   0.91341  -2.09873  M 
 H                     4.43796   2.8255    0.29645  M 
 O                     4.79375   2.45139   1.12752  M 
 H                     4.72931   3.18441   1.77428  M 
 H                     0.9967   -3.10975  -2.28281  M 
 O                     1.84415  -2.94045  -2.71994  M 
 H                     1.9227   -1.96334  -2.73154  M 
 H                     1.08605   4.64005  -0.53241  M 
 O                     0.64731   4.15001   0.19933  M 
 H                    -0.02785   4.7463    0.56976  M 
 H                    -5.77312   0.92584   1.37112  M 
 O                    -6.26189   1.74513   1.58784  M 
 H                    -7.19727   1.5046    1.36571  M 
 H                    -2.29527  -2.65884   0.23724  M 
 O                    -1.8097   -2.0963    0.87054  M 
 H                    -0.89823  -2.43149   0.84176  M 
 H                    -3.63234  -0.47476   4.32531  M 
 O                    -3.60327  -0.62785   5.29734  M 
 H                    -4.34619  -1.21906   5.55643  M 
 H                    -6.01738  -2.99283   3.26884  M 
 O                    -5.5789   -2.13124   3.36561  M 
 H                    -4.62445  -2.34892   3.33889  M 
 H                    -2.96803  -0.35678  -2.9609   M 
 O                    -2.72541  -0.39947  -3.91286  M 
 H                    -2.5614   -1.36351  -4.01403  M 
 H                    -3.5408   -3.34069  -3.73771  M 
 O                    -2.67884  -2.95676  -3.50485  M 
 H                    -1.98758  -3.58072  -3.802    M 
 H                     3.09096  -1.03171  -4.3749   M 
 O                     2.52313  -1.14085  -5.16162  M 
 H                     3.14184  -1.28598  -5.89543  M 
 H                     4.46551   2.53593  -6.67688  M 
 O                     3.94254   1.70855  -6.698    M 
 H                     3.09419   1.94471  -7.08232  M 
 H                    -4.11554   0.78982   5.87606  M 
 O                    -4.59935   1.6051    6.16623  M 
 H                    -5.18181   1.83955   5.41564  M 
 H                    -3.95387  -0.17803   2.06722  M 
 O                    -3.4024    0.12386   2.80912  M 
 H                    -3.32956   1.09785   2.74756  M 
 H                    -5.89883   0.57654  -2.12251  M 
 O                    -6.4457   -0.0824   -2.59822  M 
 H                    -6.03622  -0.1544   -3.48206  M 
 H                     1.78588  -3.70243  -4.27503  M 
 O                     1.71525  -4.14289  -5.14467  M 
 H                     1.32414  -5.01273  -4.96233  M 
 H                     4.44157  -3.50184  -0.84956  M 
 O                     4.72715  -2.7609   -0.27169  M 
 H                     3.95895  -2.14311  -0.24076  M 
 H                    -0.3381    3.0447   -0.83404  M 
 O                    -1.09363   2.67315  -1.31977  M 
 H                    -1.81105   3.32063  -1.15833  M 
 H                     1.71157   4.3773    1.61611  M 
 O                     2.18281   4.49691   2.46062  M 
 H                     2.01222   3.6934    2.97689  M 
 H                     3.68064   1.17407   1.57702  M 
 O                     2.91653   0.5866    1.73594  M 
 H                     2.14341   1.16114   1.89653  M 
 H                     3.08467  -3.87561  -2.26414  M 
 O                     3.79708  -4.50352  -1.98879  M 
 H                     4.46115  -4.47973  -2.69518  M 
 H                     4.85925  -3.61715  -4.74541  M 
 O                     5.30553  -3.32042  -3.91472  M 
 H                     4.89819  -2.47285  -3.64238  M 
 H                    -1.12113   4.99694   2.25062  M 
 O                    -1.32247   5.56913   1.47332  M 
 H                    -1.9655    5.08064   0.89757  M 
 H                    -5.75033   3.1158    0.66703  M 
 O                    -5.31903   3.63986  -0.03471  M 
 H                    -5.78119   4.49472  -0.15625  M 
 H                     5.07042  -3.87335   2.69452  M 
 O                     4.30291  -3.69362   2.14451  M 
 H                     4.61299  -3.37886   1.26615  M 
 H                     6.09618  -1.14022   1.22734  H 
 O                     5.5203   -0.33134   1.16722  H 
 H                     6.16532   0.38842   1.22956  H 
 H                     1.55137  -6.58523  -3.27204  M 
 O                     1.35156  -6.78066  -4.21303  M 
 H                     2.21784  -6.83643  -4.64236  M 
 H                    -7.20154  -3.70256   0.8279   M 
 O                    -8.17361  -3.70142   0.64796  M 
 H                    -8.61613  -3.53566   1.50878  M 
 H                     3.2683   -2.46324   2.64665  M 
 O                     2.58012  -1.80697   2.86503  M 
 H                     2.78634  -0.98625   2.38198  M 
 H                    -1.87517   2.53697   5.19082  M 
 O                    -2.59501   3.16957   5.37148  M 
 H                    -3.32201   2.64847   5.76184  M 
 H                    -0.78036   0.79668   4.01467  M 
 O                    -0.64715   1.32974   4.83038  M 
 H                     0.18552   1.79365   4.69091  M 
 H                     0.03575   3.6292   -6.85534  M 
 O                     0.9946    3.43698  -6.76046  M 
 H                     1.0289    2.57466  -6.30438  M 
 H                     7.23808  -2.9774    4.55952  H 
 O                     6.47639  -3.35072   4.02491  H 
 H                     5.67611  -3.00173   4.49409  H 
 H                     8.2624    1.61059   1.37402  H 
 O                     8.27598   0.68617   1.68484  H 
 H                     8.54419   0.13816   0.91609  H 
 H                    -4.23118  -0.40608  -4.59844  M 
 O                    -5.16672  -0.44701  -4.91423  M 
 H                    -5.17786  -0.04932  -5.80628  M 
 H                     6.35975  -1.28494  -2.36928  M 
 O                     6.79188  -1.75867  -1.65329  M 
 H                     6.07657  -2.05903  -1.06027  M 
 H                     4.76051  -0.89076   4.2862   M 
 O                     5.15021  -0.12937   3.8264   M 
 H                     5.0814   -0.27365   2.85939  M 
 H                    -0.03149   3.23923   2.95181  M 
 O                    -0.65769   3.87857   3.34724  M 
 H                    -0.33004   4.11792   4.23579  M 
 H                     8.14199  -1.07024  -0.95174  H 
 O                     8.94211  -0.72199  -0.49244  H 
 H                     9.64788  -1.37633  -0.65673  H 
 H                     9.71931  -4.07215   1.89623  H 
 O                     9.39377  -3.72219   1.02305  H 
 H                     10.15067  -3.58505   0.43682  H 
 H                    -2.33644  -2.71391   3.81376  M 
 O                    -2.97533  -2.78819   3.09477  M 
 H                    -2.54083  -2.43435   2.2782   M 
 H                    -2.35548   0.92588  -6.22236  M 
 O                    -2.99148   1.66812  -6.22855  M 
 H                    -3.22504   1.8251   -5.28992  M 
 H                    -1.43837   3.97971  -5.39353  M 
 O                    -1.58205   3.96878  -6.36849  M 
 H                    -2.16819   3.2055   -6.51824  M 
 H                    -4.61467  -6.24242  -1.23085  M 
 O                    -5.08506  -5.51018  -0.80496  M 
 H                    -5.86831  -5.32868  -1.36771  M 
 H                     2.65036  -5.70804  -1.72954  M 
 O                     1.85286  -6.26797  -1.64089  M 
 H                     1.08539  -5.6493   -1.49439  M 
 H                     3.15343  -4.05885  -5.84519  M 
 O                     4.10744  -4.03447  -6.13297  M 
 H                     4.19973  -3.28081  -6.72204  M 
 H                     7.4426    3.50204   1.95902  M 
 O                     7.34112   3.18466   1.05204  M 
 H                     6.41653   2.83591   1.01386  M 
 H                     6.63298  -3.77593   0.0725   M 
 O                     7.12098  -4.57517  -0.18939  M 
 H                     8.014    -4.41675   0.17547  M 
 H                    -7.55443  -4.42298  -2.42878  M 
 O                    -7.31126  -5.3556   -2.23592  M 
 H                    -7.9134   -5.65124  -1.52645  M 
 H                    -4.38416   6.61839   5.17558  M 
 O                    -3.49979   6.29858   4.91481  M 
 H                    -2.9968    6.07611   5.71314  M 
 H                     7.29718   3.51438   4.72291  M 
 O                     7.2812    3.13994   3.83299  M 
 H                     7.53745   2.1989    3.94075  M 
 H                    -5.69732   0.66875   7.06669  M 
 O                    -6.45491   0.11165   7.3609   M 
 H                    -6.17341  -0.80371   7.19646  M 
 H                    -0.53544  -4.77391  -3.03883  M 
 O                    -0.72497  -4.65557  -3.98746  M 
 H                    -1.31808  -5.36563  -4.2651   M 
 H                     6.71821   0.27422   4.31941  H 
 O                     7.65471   0.57068   4.26838  H 
 H                     7.91972   0.378     3.34373  H 
 H                     4.73961  -6.45896  -4.17467  M 
 O                     4.03346  -6.6276   -4.83507  M 
 H                     4.13599  -5.94082  -5.50225  M 
 H                    -6.05748  -1.79518  -5.18066  M 
 O                    -6.66784  -2.56274  -5.29788  M 
 H                    -7.53134  -2.14414  -5.5496   M 
 H                    -7.57984   0.42556   6.18091  M 
 O                    -8.16164   0.7701    5.4568   M 
 H                    -8.77075   1.38115   5.87461  M 
 H                    -5.28124   5.6438    2.52855  M 
 O                    -5.53315   6.55976   2.29199  M 
 H                    -4.68138   7.04338   2.26692  M 
 H                     5.62227   1.78618  -4.11351  M 
 O                     5.85724   1.01965  -4.68085  M 
 H                     5.3443    1.12572  -5.48458  M 
 H                    -5.97088   6.39783   0.64517  M 
 O                    -6.01661   6.19572  -0.31278  M 
 H                    -5.1372    6.45042  -0.66385  M 
 H                    -0.30559  -7.351    -3.34397  M 
 O                    -0.98987  -7.4996   -2.68107  M 
 H                    -0.57057  -7.86055  -1.89107  M 
 H                    -2.43354  -1.7488    5.51321  M 
 O                    -1.77052  -2.47151   5.62211  M 
 H                    -0.93752  -2.00025   5.8129   M 
 H                     7.48268  -4.3528   -1.84956  M 
 O                     7.58011  -4.31641  -2.82593  M 
 H                     6.79373  -3.83914  -3.14273  M 
 H                    -8.91573  -2.92577  -3.18012  M 
 O                    -7.98784  -2.84276  -2.86139  M 
 H                    -7.4629   -2.62835  -3.64758  M 
 H                     8.74338  -3.116    -3.20805  M 
 O                     9.36509  -2.38072  -3.39587  M 
 H                     8.85727  -1.55878  -3.27127  M 
 H                    -5.16448  -4.90907  -3.61442  M 
 O                    -5.13506  -3.94904  -3.46309  M 
 H                    -5.67557  -3.54487  -4.15305  M 
 H                    -3.82383   4.07519  -3.36677  M 
 O                    -3.53418   4.92344  -2.99327  M 
 H                    -3.84255   5.63214  -3.55927  M 
 H                    -0.4386    4.85772  -3.94401  M 
 O                    -1.08331   4.1542   -3.74999  M 
 H                    -1.8625    4.58104  -3.33995  M 
 H                    -1.82937  -4.22202   5.27639  M 
 O                    -2.12128  -5.0777    4.92469  M 
 H                    -3.06087  -4.93772   4.71312  M 
 H                    -2.6291    8.46449  -3.51002  M 
 O                    -2.82552   7.5134   -3.63413  M 
 H                    -2.64593   7.30157  -4.57663  M 
 H                    -3.03682   7.21271   3.45991  M 
 O                    -2.98791   7.43183   2.51424  M 
 H                    -2.3909    6.75657   2.13209  M 
 H                     4.83853   1.52049   4.09003  M 
 O                     4.6689    2.47813   3.9507   M 
 H                     5.53558   2.85146   3.70016  M 
 H                     8.11869  -1.88671   6.04003  H 
 O                     8.54698  -2.40304   5.32837  H 
 H                     9.01993  -1.7547    4.75299  H 
 H                     6.17846  -1.61949   7.55007  M 
 O                     6.86488  -1.07449   7.15216  M 
 H                     6.38369  -0.31744   6.74864  M 
 H                    -1.9966    5.79903  -6.30684  M 
 O                    -2.13692   6.7333   -6.08887  M 
 H                    -1.27326   7.17042  -6.19559  M 
 H                    -8.14777  -0.36523   4.11014  M 
 O                    -7.97605  -0.88092   3.30966  M 
 H                    -7.06589  -1.22037   3.38157  M 
 H                    -8.56302   0.04719   0.37421  M 
 O                    -8.58326   0.66972   1.11992  M 
 H                    -8.53139   0.10737   1.91158  M 
 H                     0.92567  -0.66464   5.84991  M 
 O                     0.10521  -0.76016   6.38836  M 
 H                    -0.41246   0.01484   6.1091   M 
 H                    -0.62853   7.05626  -1.50468  M 
 O                    -0.60278   6.69236  -2.41244  M 
 H                    -1.46994   6.89177  -2.83184  M 
 H                     0.63164  -8.01918   0.35956  M 
 O                    -0.27716  -8.27108   0.13515  M 
 H                    -0.70763  -8.35842   1.01332  M 
 H                     2.0569    2.57792   5.23216  M 
 O                     2.04779   2.31905   4.28639  M 
 H                     2.98298   2.35692   4.0136   M 
 H                    -8.09708  -5.44911  -5.4796   M 
 O                    -7.21058  -5.28892  -5.84282  M 
 H                    -7.06583  -4.33641  -5.77021  M 
 H                     3.09728  -7.55751   0.79355  M 
 O                     2.20582  -7.20066   0.77695  M 
 H                     2.09806  -6.84525  -0.14257  M 
 H                     3.04009   5.90324  -7.37973  M 
 O                     3.20017   4.94644  -7.52638  M 
 H                     2.38108   4.48271  -7.2928   M 
 H                    -0.63043   6.97016   0.66422  M 
 O                    -0.34599   7.69217   0.07872  M 
 H                    -1.0271    8.37476   0.16201  M 
 H                     4.46701   3.588     5.17971  M 
 O                     4.39036   4.21918   5.93623  M 
 H                     5.27961   4.28113   6.2952   M 
 H                     7.72134   2.73276   6.66783  M 
 O                     7.17986   3.56674   6.62929  M 
 H                     7.67273   4.22161   7.1223   M 
 H                     4.05927  -7.92557  -1.32723  M 
 O                     4.58779  -7.40056  -0.70398  M 
 H                     5.0094   -6.73611  -1.27259  M 
 H                     6.66192  -5.80244  -2.99364  M 
 O                     5.90125  -6.41041  -2.94202  M 
 H                     6.24932  -7.31936  -2.90151  M 
 H                    -8.95533  -2.27563   3.13868  M 
 O                    -9.43713  -3.09392   2.89464  M 
 H                    -10.18988  -2.7845    2.36261  M 
 H                    -2.79715   8.70125   1.24452  M 
 O                    -2.68024   9.07929   0.357    M 
 H                    -3.48625   9.63558   0.21777  M 
 H                     8.24031   0.62499   7.34319  H 
 O                     8.54936   1.30212   6.72496  H 
 H                     8.31094   0.92248   5.84661  H 
 H                    -2.29687   4.92384   7.81095  M 
 O                    -2.03969   5.16521   6.92224  M 
 H                    -2.23561   4.36952   6.34257  M 
 H                    -6.36268  -6.38689  -3.34246  M 
 O                    -5.70867  -6.56024  -4.04397  M 
 H                    -6.17185  -6.261    -4.85607  M 
 H                     6.79935  -2.72158   2.5253   H 
 O                     6.93874  -2.50246   1.56583  H 
 H                     7.88908  -2.61185   1.39631  H 
 H                     2.18415   6.75585  -0.75783  M 
 O                     2.44528   7.48583  -0.15265  M 
 H                     1.60576   7.8062    0.1997   M 
 H                    -4.2414   -7.31416  -2.96678  M 
 O                    -3.66077  -7.37019  -2.19917  M 
 H                    -2.75746  -7.47445  -2.54855  M 
 H                     0.62449   6.84783  -5.52129  M 
 O                     0.43361   7.72713  -5.92341  M 
 H                     0.46174   8.34342  -5.16252  M 
 H                    -8.35459  -1.67144  -1.52662  M 
 O                    -8.62869  -1.42554  -0.62941  M 
 H                    -8.37854  -2.22281  -0.11018  M 
 H                    -3.4488    7.13965  -1.9742   M 
 O                    -3.52279   6.93856  -1.03157  M 
 H                    -3.21734   7.73383  -0.54668  M 
 H                     2.86076  -4.57615   2.13457  M 
 O                     1.94921  -4.9288    2.15373  M 
 H                     2.00577  -5.80957   1.72956  M 
 H                    -8.9923   -0.72243  -4.85312  M 
 O                    -8.91662  -1.28117  -5.66165  M 
 H                    -8.65381  -0.66333  -6.36658  M 
 H                     7.38872   0.12229  -4.102    M 
 O                     8.05309   0.0775   -3.39465  M 
 H                     8.71197   0.75672  -3.59746  M 
 H                     4.09256   6.72693  -0.05521  M 
 O                     4.80269   6.10437  -0.27976  M 
 H                     4.3465    5.26686  -0.51794  M 
 H                    -8.08823   0.15404  -3.03696  M 
 O                    -8.9946    0.16929  -3.40827  M 
 H                    -9.57863  -0.08663  -2.69301  M 
 H                     5.94767   3.94161  -3.35968  M 
 O                     5.48874   3.1435   -3.03853  M 
 H                     6.09488   2.71231  -2.39113  M 
 H                    -1.32425  -6.92546  -0.03906  M 
 O                    -1.95014  -6.18663  -0.18314  M 
 H                    -2.55741  -6.48282  -0.86805  M 
 H                    -3.91797  -7.84773   0.90038  M 
 O                    -4.1268   -7.6134    1.80766  M 
 H                    -3.91949  -6.65162   1.88787  M 
 H                    -2.84655  -5.13616   1.1096   M 
 O                    -3.54424  -5.03893   1.77791  M 
 H                    -3.25304  -4.33209   2.38919  M 
 H                     5.37075  -6.2448    4.53404  M 
 O                     4.60045  -6.00249   4.01653  M 
 H                     4.8776   -6.06672   3.08733  M 
 H                    -9.65587  -6.20532  -3.82353  M 
 O                    -9.69527  -5.72735  -4.68372  M 
 H                    -10.34369  -6.19272  -5.21249  M 
 H                     6.30065  -5.62197   0.91543  M 
 O                     5.80953  -6.23229   1.5033   M 
 H                     5.34401  -6.81333   0.89015  M 
 H                    -1.30186  -6.81011   2.43787  M 
 O                    -1.43342  -7.77269   2.47397  M 
 H                    -2.3925   -7.9051    2.48788  M 
 H                    -10.19508  -4.03282  -4.3461   M 
 O                    -10.32619  -3.11418  -4.05662  M 
 H                    -10.11643  -2.54611  -4.81036  M 
 H                     0.25209   8.03177  -3.11151  M 
 O                     0.55521   8.87775  -3.50268  M 
 H                     1.46283   9.0197   -3.16193  M 
 H                    -9.14248  -7.98123  -2.48942  M 
 O                    -9.73779  -7.23068  -2.46162  M 
 H                    -9.60272  -6.81374  -1.59141  M 
 H                     2.12342   0.57868   4.52106  M 
 O                     2.23476  -0.2814    4.96897  M 
 H                     2.44052  -0.94446   4.27643  M 
 H                    -6.78768   0.4905   -7.4465   M 
 O                    -7.74422   0.56473  -7.2953   M 
 H                    -7.90073   1.45908  -6.98968  M 
 H                     5.97159   4.10585  -7.36026  M 
 O                     5.40032   4.02105  -6.59692  M 
 H                     4.54315   4.47773  -6.86108  M 
 H                    -5.47871   10.22149   0.97134  M 
 O                    -5.00695   10.2641   0.12879  M 
 H                    -5.60209   9.78801  -0.4834   M 
 H                    -0.98317  -1.00341  -5.77451  M 
 O                    -1.16877  -0.33495  -6.46936  M 
 H                    -0.38852   0.25045  -6.42221  M 
 H                     4.53031  -0.24975  -7.07442  M 
 O                     4.62815  -1.1868   -6.87377  M 
 H                     5.48573  -1.28763  -6.42433  M 
 H                     2.49076  -8.75949  -2.88576  M 
 O                     3.44681  -8.67969  -2.90243  M 
 H                     3.65162  -8.0759   -3.63165  M 
 H                    -4.46903  -0.3153   -7.80277  M 
 O                    -4.97751   0.42655  -7.44118  M 
 H                    -4.29715   1.06765  -7.13267  M 
 H                     1.40144   3.61478   6.70216  M 
 O                     2.15739   3.02313   6.88326  M 
 H                     2.96337   3.55629   6.75252  M 
 H                    -11.36807  -2.74974   0.20173  M 
 O                    -10.9437  -2.123     0.78796  M 
 H                    -10.22674  -1.71395   0.27183  M 
 H                    -7.31678   1.77956   7.79379  M 
 O                    -7.79985   2.61662   7.73841  M 
 H                    -7.9008    2.935     8.63491  M 
 H                     6.19159  -8.96279  -1.49779  M 
 O                     6.25452  -9.06154  -2.45281  M 
 H                     5.36468  -9.28942  -2.74999  M 
 H                     6.47771   5.31715  -0.85006  M 
 O                     7.1181    4.6649   -1.15267  M 
 H                     7.32857   4.12189  -0.36509  M 
 H                    -5.26069  -3.01381   5.89217  M 
 O                    -5.26832  -2.26323   6.52637  M 
 H                    -4.62265  -2.52365   7.206    M 
 H                     2.70747   1.36458   7.4299   M 
 O                     3.1792    0.52708   7.31795  M 
 H                     2.84622   0.1551    6.47424  M 
 H                    -2.572    -3.00839   7.04237  M 
 O                    -3.03904  -3.16301   7.89185  M 
 H                    -2.40579  -2.84184   8.5502   M 
 H                     5.85207   1.96876   6.5623   M 
 O                     5.56445   1.09708   6.28518  M 
 H                     4.6901    0.93154   6.69473  M 
 H                     2.06079  -4.41164   3.98046  M 
 O                     2.56059  -4.36178   4.80794  M 
 H                     3.26482  -5.02437   4.69554  M 
 H                     10.36271  -2.63845  -2.10059  H 
 O                     10.85315  -2.63121  -1.23319  H 
 H                     11.71486  -2.2686   -1.46616  H 
 H                     3.67832   8.37806  -2.81228  M 
 O                     3.00243   8.93899  -2.41217  M 
 H                     2.85157   8.56941  -1.52292  M 
 H                    -8.14372  -6.54784   0.42908  M 
 O                    -8.80751  -6.12082  -0.13649  M 
 H                    -8.75659  -5.17627   0.15055  M 
 H                    -0.95541   9.73305  -3.05732  M 
 O                    -1.89009   9.88541  -2.82111  M 
 H                    -1.93577   9.98536  -1.86775  M 
 H                     3.93946   4.12993  -3.78112  M 
 O                     3.37994   4.91233  -3.77831  M 
 H                     3.93847   5.68835  -3.56437  M 
 H                     5.00497   6.68423  -1.95257  M 
 O                     4.91251   6.91125  -2.89862  M 
 H                     5.68763   6.57001  -3.3628   M 
 H                    -0.35455   5.07071   6.19412  M 
 O                     0.35917   4.60817   5.73272  M 
 H                     1.03869   5.26276   5.44134  M 
 H                     3.20441   5.50326   5.1827   M 
 O                     2.42829   5.94526   4.80707  M 
 H                     2.35813   5.6312    3.89166  M 
 H                    -7.32575   8.9162    0.16541  M 
 O                    -7.05383   8.71229  -0.73909  M 
 H                    -6.812     7.76938  -0.7342   M 
 H                    -1.23033  -5.10587   3.50822  M 
 O                    -0.80429  -4.99536   2.62768  M 
 H                     0.11927  -5.25097   2.69859  M 
 H                     4.34128  -2.21349   6.0978   M 
 O                     4.31873  -2.35034   5.12671  M 
 H                     3.60726  -3.00083   4.95892  M 
 H                     7.18393  -6.14754   2.8863   M 
 O                     7.57645  -5.79685   3.69553  M 
 H                     7.10185  -4.96194   3.87327  M 
 H                     9.18395  -5.21347   3.60382  H 
 O                     9.95237  -4.60831   3.48001  H 
 H                     9.82261  -3.9622    4.19064  H 
 H                     2.73849   8.12285  -7.96536  M 
 O                     2.76576   7.57062  -7.18535  M 
 H                     1.90241   7.70443  -6.72365  M 
 H                    -0.44995  -1.46715   8.09466  M 
 O                    -0.63552  -2.1181    8.786    M 
 H                     0.08048  -2.75736   8.73173  M 
 H                     8.21003   4.62058  -2.36906  M 
 O                     8.87275   4.66181  -3.10652  M 
 H                     9.59807   5.1813   -2.75968  M 
 H                     6.16163   4.85645  -5.22355  M 
 O                     6.50011   5.24009  -4.39296  M 
 H                     7.4502    5.0891   -4.33202  M 
 H                     10.47255   2.35113  -4.37856  M 
 O                     9.75831   2.22071  -3.75639  M 
 H                     9.3719    3.10458  -3.56427  M 
 H                     3.29728  -2.53259   7.76928  M 
 O                     4.12504  -2.014     7.7631   M 
 H                     3.84155  -1.09247   7.86303  M 
 H                    -2.65753  -1.82713  -8.75722  M 
 O                    -3.05131  -1.51493  -7.94352  M 
 H                    -2.33957  -1.06253  -7.44113  M 
 H                     5.02744   5.4233    1.52556  M 
 O                     4.84437   4.85164   2.28151  M 
 H                     3.87755   4.86492   2.40393  M 
 H                    -3.85301  -6.25101  -4.85077  M 
 O                    -3.0529   -5.7285   -4.94103  M 
 H                    -3.30324  -4.94464  -5.45536  M 
 H                    -6.5667    6.01235   5.19826  M 
 O                    -6.14598   6.84646   4.91908  M 
 H                    -6.03565   6.78225   3.94448  M 
 H                    -7.41086   3.95013   6.39874  M 
 O                    -7.17481   4.39783   5.57658  M 
 H                    -6.93576   3.68433   4.96295  M 
 H                    -7.35242   9.37792   2.8089   M 
 O                    -7.13395   9.78767   1.94686  M 
 H                    -7.61175   10.61749   1.92331  M 
 H                    -5.90398  -7.0331    1.72081  M 
 O                    -6.53363  -6.40214   1.3385   M 
 H                    -6.01744  -5.94165   0.64265  M 
 H                    -3.59707  -4.87724   7.63536  M 
 O                    -3.83294  -5.71609   7.19988  M 
 H                    -3.05093  -5.97139   6.69682  M 
 H                     9.46803   0.94208  -0.91459  H 
 O                     9.543     1.91814  -0.96615  H 
 H                     9.82144   2.07257  -1.88094  H 
 H                    -7.89119  -4.34102   3.37991  M 
 O                    -6.96289  -4.59509   3.3559   M 
 H                    -6.8461   -5.22146   2.61302  M 
 H                     1.19359  -2.40856   6.83882  M 
 O                     1.7074   -3.15106   7.17457  M 
 H                     1.90934  -3.70619   6.40513  M 
 H                    -3.62565  -2.79161  -6.78953  M 
 O                    -4.01765  -3.43417  -6.18002  M 
 H                    -4.96927  -3.31135  -6.23639  M 
 H                    -8.74129   8.2192    4.2316   M 
 O                    -7.95388   8.75758   4.32423  M 
 H                    -7.26104   8.163     4.68169  M 
 H                     7.85978  -1.92883  -5.40034  M 
 O                     6.93284  -1.68514  -5.39559  M 
 H                     6.48514  -2.34227  -4.82948  M 
 H                    -4.75352  -5.0624    5.81835  M 
 O                    -4.8242   -4.46571   5.04764  M 
 H                    -5.59784  -4.71328   4.52105  M 
 
 ITRead=  0  0  0  0  0  0  0  0  0  0  0  0  0  0  0  0  0  0  0  0
 ITRead=  0  0  0  0  0  0  0  0  0  0  0  0  0  0  0  0  0  0  0  0
 ITRead=  0  0  0  0  0  0  0  0  0  0  0  0  0  0  0  0  0  0  0  0
 ITRead=  0  0  0  0  0  0  0  0  0  0  0  0  0  0  0  0  0  0  0  0
 ITRead=  0  0  0  0  0  0  0  0  0  0  0  0  0  0  0  0  0  0  0  0
 ITRead=  0  0  0  0  0  0  0  0  0  0  0  0  0  0  0  0  0  0  0  0
 ITRead=  0  0  0  0  0  0  0  0  0  0  0  0  0  0  0  0  0  0  0  0
 ITRead=  0  0  0  0  0  0  0  0  0  0  0  0  0  0  0  0  0  0  0  0
 ITRead=  0  0  0  0  0  0  0  0  0  0  0  0  0  0  0  0  0  0  0  0
 ITRead=  0  0  0  0  0  0  0  0  0  0  0  0  0  0  0  0  0  0  0  0
 ITRead=  0  0  0  0  0  0  0  0  0  0  0  0  0  0  0  0  0  0  0  0
 ITRead=  0  0  0  0  0  0  0  0  0  0  0  0  0  0  0  0  0  0  0  0
 ITRead=  0  0  0  0  0  0  0  0  0  0  0  0  0  0  0  0  0  0  0  0
 ITRead=  0  0  0  0  0  0  0  0  0  0  0  0  0  0  0  0  0  0  0  0
 ITRead=  0  0  0  0  0  0  0  0  0  0  0  0  0  0  0  0  0  0  0  0
 ITRead=  0  0  0  0  0  0  0  0  0  0  0  0  0  0  0  0  0  0  0  0
 ITRead=  0  0  0  0  0  0  0  0  0  0  0  0  0  0  0  0  0  0  0  0
 ITRead=  0  0  0  0  0  0  0  0  0  0  0  0  0  0  0  0  0  0  0  0
 ITRead=  0  0  0  0  0  0  0  0  0  0  0  0  0  0  0  0  0  0  0  0
 ITRead=  0  0  0  0  0  0  0  0  0  0  0  0  0  0  0  0  0  0  0  0
 ITRead=  0  0  0  0  0  0  0  0  0  0  0  0  0  0  0  0  0  0  0  0
 ITRead=  0  0  0  0  0  0  0  0  0  0  0  0  0  0  0  0  0  0  0  0
 ITRead=  0  0  0  0  0  0  0  0  0  0  0  0  0  0  0  0  0  0  0  0
 ITRead=  0  0  0  0  0  0  0  0  0  0  0  0  0  0  0  0  0  0  0  0
 ITRead=  0  0  0  0  0  0  0  0  0  0  0  0  0  0  0  0  0  0  0  0
 ITRead=  0  0  0  0  0  0  0  0  0  0  0  0  0  0  0  0  0  0  0  0
 ITRead=  0  0  0  0  0  0  0  0  0  0  0  0  0  0  0  0  0  0  0  0
 ITRead=  0  0  0  0  0  0  0  0  0  0  0  0  0  0  0  0  0  0  0  0
 ITRead=  0  0  0  0  0  0  0  0  0  0  0  0  0  0  0  0  0  0  0  0
 ITRead=  0  0  0  0  0  0  0  0  0  0  0  0  0  0  0  0  0  0  0  0
 MicOpt= -1 -1 -1 -1 -1 -1 -1 -1 -1 -1 -1 -1 -1 -1 -1 -1 -1 -1 -1 -1
 MicOpt= -1 -1 -1 -1 -1 -1 -1 -1 -1 -1 -1 -1 -1 -1 -1 -1 -1 -1 -1 -1
 MicOpt= -1 -1 -1 -1 -1 -1 -1 -1 -1 -1 -1 -1 -1 -1 -1 -1 -1 -1 -1 -1
 MicOpt= -1 -1 -1 -1 -1 -1 -1 -1 -1 -1 -1 -1 -1 -1 -1 -1 -1 -1 -1 -1
 MicOpt= -1 -1 -1 -1 -1 -1 -1 -1 -1 -1 -1 -1 -1 -1 -1 -1 -1 -1 -1 -1
 MicOpt= -1 -1 -1 -1 -1 -1 -1 -1 -1 -1 -1 -1 -1 -1 -1 -1 -1 -1 -1 -1
 MicOpt= -1 -1 -1 -1 -1 -1 -1 -1 -1 -1 -1 -1 -1 -1 -1 -1 -1 -1 -1 -1
 MicOpt= -1 -1 -1 -1 -1 -1 -1 -1 -1 -1 -1 -1 -1 -1 -1 -1 -1 -1 -1 -1
 MicOpt= -1 -1 -1 -1 -1 -1 -1 -1 -1 -1 -1 -1 -1 -1 -1 -1 -1 -1 -1 -1
 MicOpt= -1 -1 -1 -1 -1 -1 -1 -1 -1 -1 -1 -1 -1 -1 -1 -1 -1 -1 -1 -1
 MicOpt= -1 -1 -1 -1 -1 -1 -1 -1 -1 -1 -1 -1 -1 -1 -1 -1 -1 -1 -1 -1
 MicOpt= -1 -1 -1 -1 -1 -1 -1 -1 -1 -1 -1 -1 -1 -1 -1 -1 -1 -1 -1 -1
 MicOpt= -1 -1 -1 -1 -1 -1 -1 -1 -1 -1 -1 -1 -1 -1 -1 -1 -1 -1 -1 -1
 MicOpt= -1 -1 -1 -1 -1 -1 -1 -1 -1 -1 -1 -1 -1 -1 -1 -1 -1 -1 -1 -1
 MicOpt= -1 -1 -1 -1 -1 -1 -1 -1 -1 -1 -1 -1 -1 -1 -1 -1 -1 -1 -1 -1
 MicOpt= -1 -1 -1 -1 -1 -1 -1 -1 -1 -1 -1 -1 -1 -1 -1 -1 -1 -1 -1 -1
 MicOpt= -1 -1 -1 -1 -1 -1 -1 -1 -1 -1 -1 -1 -1 -1 -1 -1 -1 -1 -1 -1
 MicOpt= -1 -1 -1 -1 -1 -1 -1 -1 -1 -1 -1 -1 -1 -1 -1 -1 -1 -1 -1 -1
 MicOpt= -1 -1 -1 -1 -1 -1 -1 -1 -1 -1 -1 -1 -1 -1 -1 -1 -1 -1 -1 -1
 MicOpt= -1 -1 -1 -1 -1 -1 -1 -1 -1 -1 -1 -1 -1 -1 -1 -1 -1 -1 -1 -1
 MicOpt= -1 -1 -1 -1 -1 -1 -1 -1 -1 -1 -1 -1 -1 -1 -1 -1 -1 -1 -1 -1
 MicOpt= -1 -1 -1 -1 -1 -1 -1 -1 -1 -1 -1 -1 -1 -1 -1 -1 -1 -1 -1 -1
 MicOpt= -1 -1 -1 -1 -1 -1 -1 -1 -1 -1 -1 -1 -1 -1 -1 -1 -1 -1 -1 -1
 MicOpt= -1 -1 -1 -1 -1 -1 -1 -1 -1 -1 -1 -1 -1 -1 -1 -1 -1 -1 -1 -1
 MicOpt= -1 -1 -1 -1 -1 -1 -1 -1 -1 -1 -1 -1 -1 -1 -1 -1 -1 -1 -1 -1
 MicOpt= -1 -1 -1 -1 -1 -1 -1 -1 -1 -1 -1 -1 -1 -1 -1 -1 -1 -1 -1 -1
 MicOpt= -1 -1 -1 -1 -1 -1 -1 -1 -1 -1 -1 -1 -1 -1 -1 -1 -1 -1 -1 -1
 MicOpt= -1 -1 -1 -1 -1 -1 -1 -1 -1 -1 -1 -1 -1 -1 -1 -1 -1 -1 -1 -1
 MicOpt= -1 -1 -1 -1 -1 -1 -1 -1 -1 -1 -1 -1 -1 -1 -1 -1 -1 -1 -1 -1
 MicOpt= -1 -1 -1 -1 -1 -1 -1 -1 -1 -1 -1 -1 -1 -1 -1 -1 -1 -1 -1 -1
 NAtoms=    600 NQM=      600 NQMF=       0 NMMI=      0 NMMIF=      0
                NMic=       0 NMicF=      0.
                    Isotopes and Nuclear Properties:
 (Nuclear quadrupole moments (NQMom) in fm**2, nuclear magnetic moments (NMagM)
  in nuclear magnetons)

  Atom         1           2           3           4           5           6           7           8           9          10
 IAtWgt=           1          16           1           1          16           1           1          16           1           1
 AtmWgt=   1.0078250  15.9949146   1.0078250   1.0078250  15.9949146   1.0078250   1.0078250  15.9949146   1.0078250   1.0078250
 NucSpn=           1           0           1           1           0           1           1           0           1           1
 AtZEff=  -0.0000000  -0.0000000  -0.0000000  -0.0000000  -0.0000000  -0.0000000  -0.0000000  -0.0000000  -0.0000000  -0.0000000
 NQMom=    0.0000000   0.0000000   0.0000000   0.0000000   0.0000000   0.0000000   0.0000000   0.0000000   0.0000000   0.0000000
 NMagM=    2.7928460   0.0000000   2.7928460   2.7928460   0.0000000   2.7928460   2.7928460   0.0000000   2.7928460   2.7928460
 AtZNuc=   1.0000000   8.0000000   1.0000000   1.0000000   8.0000000   1.0000000   1.0000000   8.0000000   1.0000000   1.0000000

  Atom        11          12          13          14          15          16          17          18          19          20
 IAtWgt=          16           1           1          16           1           1          16           1           1          16
 AtmWgt=  15.9949146   1.0078250   1.0078250  15.9949146   1.0078250   1.0078250  15.9949146   1.0078250   1.0078250  15.9949146
 NucSpn=           0           1           1           0           1           1           0           1           1           0
 AtZEff=  -0.0000000  -0.0000000  -0.0000000  -0.0000000  -0.0000000  -0.0000000  -0.0000000  -0.0000000  -0.0000000  -0.0000000
 NQMom=    0.0000000   0.0000000   0.0000000   0.0000000   0.0000000   0.0000000   0.0000000   0.0000000   0.0000000   0.0000000
 NMagM=    0.0000000   2.7928460   2.7928460   0.0000000   2.7928460   2.7928460   0.0000000   2.7928460   2.7928460   0.0000000
 AtZNuc=   8.0000000   1.0000000   1.0000000   8.0000000   1.0000000   1.0000000   8.0000000   1.0000000   1.0000000   8.0000000

  Atom        21          22          23          24          25          26          27          28          29          30
 IAtWgt=           1           1          16           1           1          16           1           1          16           1
 AtmWgt=   1.0078250   1.0078250  15.9949146   1.0078250   1.0078250  15.9949146   1.0078250   1.0078250  15.9949146   1.0078250
 NucSpn=           1           1           0           1           1           0           1           1           0           1
 AtZEff=  -0.0000000  -0.0000000  -0.0000000  -0.0000000  -0.0000000  -0.0000000  -0.0000000  -0.0000000  -0.0000000  -0.0000000
 NQMom=    0.0000000   0.0000000   0.0000000   0.0000000   0.0000000   0.0000000   0.0000000   0.0000000   0.0000000   0.0000000
 NMagM=    2.7928460   2.7928460   0.0000000   2.7928460   2.7928460   0.0000000   2.7928460   2.7928460   0.0000000   2.7928460
 AtZNuc=   1.0000000   1.0000000   8.0000000   1.0000000   1.0000000   8.0000000   1.0000000   1.0000000   8.0000000   1.0000000

  Atom        31          32          33          34          35          36          37          38          39          40
 IAtWgt=           1          16           1           1          16           1           1          16           1           1
 AtmWgt=   1.0078250  15.9949146   1.0078250   1.0078250  15.9949146   1.0078250   1.0078250  15.9949146   1.0078250   1.0078250
 NucSpn=           1           0           1           1           0           1           1           0           1           1
 AtZEff=  -0.0000000  -0.0000000  -0.0000000  -0.0000000  -0.0000000  -0.0000000  -0.0000000  -0.0000000  -0.0000000  -0.0000000
 NQMom=    0.0000000   0.0000000   0.0000000   0.0000000   0.0000000   0.0000000   0.0000000   0.0000000   0.0000000   0.0000000
 NMagM=    2.7928460   0.0000000   2.7928460   2.7928460   0.0000000   2.7928460   2.7928460   0.0000000   2.7928460   2.7928460
 AtZNuc=   1.0000000   8.0000000   1.0000000   1.0000000   8.0000000   1.0000000   1.0000000   8.0000000   1.0000000   1.0000000

  Atom        41          42          43          44          45          46          47          48          49          50
 IAtWgt=          16           1           1          16           1           1          16           1           1          16
 AtmWgt=  15.9949146   1.0078250   1.0078250  15.9949146   1.0078250   1.0078250  15.9949146   1.0078250   1.0078250  15.9949146
 NucSpn=           0           1           1           0           1           1           0           1           1           0
 AtZEff=  -0.0000000  -0.0000000  -0.0000000  -0.0000000  -0.0000000  -0.0000000  -0.0000000  -0.0000000  -0.0000000  -0.0000000
 NQMom=    0.0000000   0.0000000   0.0000000   0.0000000   0.0000000   0.0000000   0.0000000   0.0000000   0.0000000   0.0000000
 NMagM=    0.0000000   2.7928460   2.7928460   0.0000000   2.7928460   2.7928460   0.0000000   2.7928460   2.7928460   0.0000000
 AtZNuc=   8.0000000   1.0000000   1.0000000   8.0000000   1.0000000   1.0000000   8.0000000   1.0000000   1.0000000   8.0000000

  Atom        51          52          53          54          55          56          57          58          59          60
 IAtWgt=           1           1          16           1           1          16           1           1          16           1
 AtmWgt=   1.0078250   1.0078250  15.9949146   1.0078250   1.0078250  15.9949146   1.0078250   1.0078250  15.9949146   1.0078250
 NucSpn=           1           1           0           1           1           0           1           1           0           1
 AtZEff=  -0.0000000  -0.0000000  -0.0000000  -0.0000000  -0.0000000  -0.0000000  -0.0000000  -0.0000000  -0.0000000  -0.0000000
 NQMom=    0.0000000   0.0000000   0.0000000   0.0000000   0.0000000   0.0000000   0.0000000   0.0000000   0.0000000   0.0000000
 NMagM=    2.7928460   2.7928460   0.0000000   2.7928460   2.7928460   0.0000000   2.7928460   2.7928460   0.0000000   2.7928460
 AtZNuc=   1.0000000   1.0000000   8.0000000   1.0000000   1.0000000   8.0000000   1.0000000   1.0000000   8.0000000   1.0000000

  Atom        61          62          63          64          65          66          67          68          69          70
 IAtWgt=           1          16           1           1          16           1           1          16           1           1
 AtmWgt=   1.0078250  15.9949146   1.0078250   1.0078250  15.9949146   1.0078250   1.0078250  15.9949146   1.0078250   1.0078250
 NucSpn=           1           0           1           1           0           1           1           0           1           1
 AtZEff=  -0.0000000  -0.0000000  -0.0000000  -0.0000000  -0.0000000  -0.0000000  -0.0000000  -0.0000000  -0.0000000  -0.0000000
 NQMom=    0.0000000   0.0000000   0.0000000   0.0000000   0.0000000   0.0000000   0.0000000   0.0000000   0.0000000   0.0000000
 NMagM=    2.7928460   0.0000000   2.7928460   2.7928460   0.0000000   2.7928460   2.7928460   0.0000000   2.7928460   2.7928460
 AtZNuc=   1.0000000   8.0000000   1.0000000   1.0000000   8.0000000   1.0000000   1.0000000   8.0000000   1.0000000   1.0000000

  Atom        71          72          73          74          75          76          77          78          79          80
 IAtWgt=          16           1           1          16           1           1          16           1           1          16
 AtmWgt=  15.9949146   1.0078250   1.0078250  15.9949146   1.0078250   1.0078250  15.9949146   1.0078250   1.0078250  15.9949146
 NucSpn=           0           1           1           0           1           1           0           1           1           0
 AtZEff=  -0.0000000  -0.0000000  -0.0000000  -0.0000000  -0.0000000  -0.0000000  -0.0000000  -0.0000000  -0.0000000  -0.0000000
 NQMom=    0.0000000   0.0000000   0.0000000   0.0000000   0.0000000   0.0000000   0.0000000   0.0000000   0.0000000   0.0000000
 NMagM=    0.0000000   2.7928460   2.7928460   0.0000000   2.7928460   2.7928460   0.0000000   2.7928460   2.7928460   0.0000000
 AtZNuc=   8.0000000   1.0000000   1.0000000   8.0000000   1.0000000   1.0000000   8.0000000   1.0000000   1.0000000   8.0000000

  Atom        81          82          83          84          85          86          87          88          89          90
 IAtWgt=           1           1          16           1           1          16           1           1          16           1
 AtmWgt=   1.0078250   1.0078250  15.9949146   1.0078250   1.0078250  15.9949146   1.0078250   1.0078250  15.9949146   1.0078250
 NucSpn=           1           1           0           1           1           0           1           1           0           1
 AtZEff=  -0.0000000  -0.0000000  -0.0000000  -0.0000000  -0.0000000  -0.0000000  -0.0000000  -0.0000000  -0.0000000  -0.0000000
 NQMom=    0.0000000   0.0000000   0.0000000   0.0000000   0.0000000   0.0000000   0.0000000   0.0000000   0.0000000   0.0000000
 NMagM=    2.7928460   2.7928460   0.0000000   2.7928460   2.7928460   0.0000000   2.7928460   2.7928460   0.0000000   2.7928460
 AtZNuc=   1.0000000   1.0000000   8.0000000   1.0000000   1.0000000   8.0000000   1.0000000   1.0000000   8.0000000   1.0000000

  Atom        91          92          93          94          95          96          97          98          99         100
 IAtWgt=           1          16           1           1          16           1           1          16           1           1
 AtmWgt=   1.0078250  15.9949146   1.0078250   1.0078250  15.9949146   1.0078250   1.0078250  15.9949146   1.0078250   1.0078250
 NucSpn=           1           0           1           1           0           1           1           0           1           1
 AtZEff=  -0.0000000  -0.0000000  -0.0000000  -0.0000000  -0.0000000  -0.0000000  -0.0000000  -0.0000000  -0.0000000  -0.0000000
 NQMom=    0.0000000   0.0000000   0.0000000   0.0000000   0.0000000   0.0000000   0.0000000   0.0000000   0.0000000   0.0000000
 NMagM=    2.7928460   0.0000000   2.7928460   2.7928460   0.0000000   2.7928460   2.7928460   0.0000000   2.7928460   2.7928460
 AtZNuc=   1.0000000   8.0000000   1.0000000   1.0000000   8.0000000   1.0000000   1.0000000   8.0000000   1.0000000   1.0000000

  Atom       101         102         103         104         105         106         107         108         109         110
 IAtWgt=          16           1           1          16           1           1          16           1           1          16
 AtmWgt=  15.9949146   1.0078250   1.0078250  15.9949146   1.0078250   1.0078250  15.9949146   1.0078250   1.0078250  15.9949146
 NucSpn=           0           1           1           0           1           1           0           1           1           0
 AtZEff=  -0.0000000  -0.0000000  -0.0000000  -0.0000000  -0.0000000  -0.0000000  -0.0000000  -0.0000000  -0.0000000  -0.0000000
 NQMom=    0.0000000   0.0000000   0.0000000   0.0000000   0.0000000   0.0000000   0.0000000   0.0000000   0.0000000   0.0000000
 NMagM=    0.0000000   2.7928460   2.7928460   0.0000000   2.7928460   2.7928460   0.0000000   2.7928460   2.7928460   0.0000000
 AtZNuc=   8.0000000   1.0000000   1.0000000   8.0000000   1.0000000   1.0000000   8.0000000   1.0000000   1.0000000   8.0000000

  Atom       111         112         113         114         115         116         117         118         119         120
 IAtWgt=           1           1          16           1           1          16           1           1          16           1
 AtmWgt=   1.0078250   1.0078250  15.9949146   1.0078250   1.0078250  15.9949146   1.0078250   1.0078250  15.9949146   1.0078250
 NucSpn=           1           1           0           1           1           0           1           1           0           1
 AtZEff=  -0.0000000  -0.0000000  -0.0000000  -0.0000000  -0.0000000  -0.0000000  -0.0000000  -0.0000000  -0.0000000  -0.0000000
 NQMom=    0.0000000   0.0000000   0.0000000   0.0000000   0.0000000   0.0000000   0.0000000   0.0000000   0.0000000   0.0000000
 NMagM=    2.7928460   2.7928460   0.0000000   2.7928460   2.7928460   0.0000000   2.7928460   2.7928460   0.0000000   2.7928460
 AtZNuc=   1.0000000   1.0000000   8.0000000   1.0000000   1.0000000   8.0000000   1.0000000   1.0000000   8.0000000   1.0000000

  Atom       121         122         123         124         125         126         127         128         129         130
 IAtWgt=           1          16           1           1          16           1           1          16           1           1
 AtmWgt=   1.0078250  15.9949146   1.0078250   1.0078250  15.9949146   1.0078250   1.0078250  15.9949146   1.0078250   1.0078250
 NucSpn=           1           0           1           1           0           1           1           0           1           1
 AtZEff=  -0.0000000  -0.0000000  -0.0000000  -0.0000000  -0.0000000  -0.0000000  -0.0000000  -0.0000000  -0.0000000  -0.0000000
 NQMom=    0.0000000   0.0000000   0.0000000   0.0000000   0.0000000   0.0000000   0.0000000   0.0000000   0.0000000   0.0000000
 NMagM=    2.7928460   0.0000000   2.7928460   2.7928460   0.0000000   2.7928460   2.7928460   0.0000000   2.7928460   2.7928460
 AtZNuc=   1.0000000   8.0000000   1.0000000   1.0000000   8.0000000   1.0000000   1.0000000   8.0000000   1.0000000   1.0000000

  Atom       131         132         133         134         135         136         137         138         139         140
 IAtWgt=          16           1           1          16           1           1          16           1           1          16
 AtmWgt=  15.9949146   1.0078250   1.0078250  15.9949146   1.0078250   1.0078250  15.9949146   1.0078250   1.0078250  15.9949146
 NucSpn=           0           1           1           0           1           1           0           1           1           0
 AtZEff=  -0.0000000  -0.0000000  -0.0000000  -0.0000000  -0.0000000  -0.0000000  -0.0000000  -0.0000000  -0.0000000  -0.0000000
 NQMom=    0.0000000   0.0000000   0.0000000   0.0000000   0.0000000   0.0000000   0.0000000   0.0000000   0.0000000   0.0000000
 NMagM=    0.0000000   2.7928460   2.7928460   0.0000000   2.7928460   2.7928460   0.0000000   2.7928460   2.7928460   0.0000000
 AtZNuc=   8.0000000   1.0000000   1.0000000   8.0000000   1.0000000   1.0000000   8.0000000   1.0000000   1.0000000   8.0000000

  Atom       141         142         143         144         145         146         147         148         149         150
 IAtWgt=           1           1          16           1           1          16           1           1          16           1
 AtmWgt=   1.0078250   1.0078250  15.9949146   1.0078250   1.0078250  15.9949146   1.0078250   1.0078250  15.9949146   1.0078250
 NucSpn=           1           1           0           1           1           0           1           1           0           1
 AtZEff=  -0.0000000  -0.0000000  -0.0000000  -0.0000000  -0.0000000  -0.0000000  -0.0000000  -0.0000000  -0.0000000  -0.0000000
 NQMom=    0.0000000   0.0000000   0.0000000   0.0000000   0.0000000   0.0000000   0.0000000   0.0000000   0.0000000   0.0000000
 NMagM=    2.7928460   2.7928460   0.0000000   2.7928460   2.7928460   0.0000000   2.7928460   2.7928460   0.0000000   2.7928460
 AtZNuc=   1.0000000   1.0000000   8.0000000   1.0000000   1.0000000   8.0000000   1.0000000   1.0000000   8.0000000   1.0000000

  Atom       151         152         153         154         155         156         157         158         159         160
 IAtWgt=           1          16           1           1          16           1           1          16           1           1
 AtmWgt=   1.0078250  15.9949146   1.0078250   1.0078250  15.9949146   1.0078250   1.0078250  15.9949146   1.0078250   1.0078250
 NucSpn=           1           0           1           1           0           1           1           0           1           1
 AtZEff=  -0.0000000  -0.0000000  -0.0000000  -0.0000000  -0.0000000  -0.0000000  -0.0000000  -0.0000000  -0.0000000  -0.0000000
 NQMom=    0.0000000   0.0000000   0.0000000   0.0000000   0.0000000   0.0000000   0.0000000   0.0000000   0.0000000   0.0000000
 NMagM=    2.7928460   0.0000000   2.7928460   2.7928460   0.0000000   2.7928460   2.7928460   0.0000000   2.7928460   2.7928460
 AtZNuc=   1.0000000   8.0000000   1.0000000   1.0000000   8.0000000   1.0000000   1.0000000   8.0000000   1.0000000   1.0000000

  Atom       161         162         163         164         165         166         167         168         169         170
 IAtWgt=          16           1           1          16           1           1          16           1           1          16
 AtmWgt=  15.9949146   1.0078250   1.0078250  15.9949146   1.0078250   1.0078250  15.9949146   1.0078250   1.0078250  15.9949146
 NucSpn=           0           1           1           0           1           1           0           1           1           0
 AtZEff=  -0.0000000  -0.0000000  -0.0000000  -0.0000000  -0.0000000  -0.0000000  -0.0000000  -0.0000000  -0.0000000  -0.0000000
 NQMom=    0.0000000   0.0000000   0.0000000   0.0000000   0.0000000   0.0000000   0.0000000   0.0000000   0.0000000   0.0000000
 NMagM=    0.0000000   2.7928460   2.7928460   0.0000000   2.7928460   2.7928460   0.0000000   2.7928460   2.7928460   0.0000000
 AtZNuc=   8.0000000   1.0000000   1.0000000   8.0000000   1.0000000   1.0000000   8.0000000   1.0000000   1.0000000   8.0000000

  Atom       171         172         173         174         175         176         177         178         179         180
 IAtWgt=           1           1          16           1           1          16           1           1          16           1
 AtmWgt=   1.0078250   1.0078250  15.9949146   1.0078250   1.0078250  15.9949146   1.0078250   1.0078250  15.9949146   1.0078250
 NucSpn=           1           1           0           1           1           0           1           1           0           1
 AtZEff=  -0.0000000  -0.0000000  -0.0000000  -0.0000000  -0.0000000  -0.0000000  -0.0000000  -0.0000000  -0.0000000  -0.0000000
 NQMom=    0.0000000   0.0000000   0.0000000   0.0000000   0.0000000   0.0000000   0.0000000   0.0000000   0.0000000   0.0000000
 NMagM=    2.7928460   2.7928460   0.0000000   2.7928460   2.7928460   0.0000000   2.7928460   2.7928460   0.0000000   2.7928460
 AtZNuc=   1.0000000   1.0000000   8.0000000   1.0000000   1.0000000   8.0000000   1.0000000   1.0000000   8.0000000   1.0000000

  Atom       181         182         183         184         185         186         187         188         189         190
 IAtWgt=           1          16           1           1          16           1           1          16           1           1
 AtmWgt=   1.0078250  15.9949146   1.0078250   1.0078250  15.9949146   1.0078250   1.0078250  15.9949146   1.0078250   1.0078250
 NucSpn=           1           0           1           1           0           1           1           0           1           1
 AtZEff=  -0.0000000  -0.0000000  -0.0000000  -0.0000000  -0.0000000  -0.0000000  -0.0000000  -0.0000000  -0.0000000  -0.0000000
 NQMom=    0.0000000   0.0000000   0.0000000   0.0000000   0.0000000   0.0000000   0.0000000   0.0000000   0.0000000   0.0000000
 NMagM=    2.7928460   0.0000000   2.7928460   2.7928460   0.0000000   2.7928460   2.7928460   0.0000000   2.7928460   2.7928460
 AtZNuc=   1.0000000   8.0000000   1.0000000   1.0000000   8.0000000   1.0000000   1.0000000   8.0000000   1.0000000   1.0000000

  Atom       191         192         193         194         195         196         197         198         199         200
 IAtWgt=          16           1           1          16           1           1          16           1           1          16
 AtmWgt=  15.9949146   1.0078250   1.0078250  15.9949146   1.0078250   1.0078250  15.9949146   1.0078250   1.0078250  15.9949146
 NucSpn=           0           1           1           0           1           1           0           1           1           0
 AtZEff=  -0.0000000  -0.0000000  -0.0000000  -0.0000000  -0.0000000  -0.0000000  -0.0000000  -0.0000000  -0.0000000  -0.0000000
 NQMom=    0.0000000   0.0000000   0.0000000   0.0000000   0.0000000   0.0000000   0.0000000   0.0000000   0.0000000   0.0000000
 NMagM=    0.0000000   2.7928460   2.7928460   0.0000000   2.7928460   2.7928460   0.0000000   2.7928460   2.7928460   0.0000000
 AtZNuc=   8.0000000   1.0000000   1.0000000   8.0000000   1.0000000   1.0000000   8.0000000   1.0000000   1.0000000   8.0000000

  Atom       201         202         203         204         205         206         207         208         209         210
 IAtWgt=           1           1          16           1           1          16           1           1          16           1
 AtmWgt=   1.0078250   1.0078250  15.9949146   1.0078250   1.0078250  15.9949146   1.0078250   1.0078250  15.9949146   1.0078250
 NucSpn=           1           1           0           1           1           0           1           1           0           1
 AtZEff=  -0.0000000  -0.0000000  -0.0000000  -0.0000000  -0.0000000  -0.0000000  -0.0000000  -0.0000000  -0.0000000  -0.0000000
 NQMom=    0.0000000   0.0000000   0.0000000   0.0000000   0.0000000   0.0000000   0.0000000   0.0000000   0.0000000   0.0000000
 NMagM=    2.7928460   2.7928460   0.0000000   2.7928460   2.7928460   0.0000000   2.7928460   2.7928460   0.0000000   2.7928460
 AtZNuc=   1.0000000   1.0000000   8.0000000   1.0000000   1.0000000   8.0000000   1.0000000   1.0000000   8.0000000   1.0000000

  Atom       211         212         213         214         215         216         217         218         219         220
 IAtWgt=           1          16           1           1          16           1           1          16           1           1
 AtmWgt=   1.0078250  15.9949146   1.0078250   1.0078250  15.9949146   1.0078250   1.0078250  15.9949146   1.0078250   1.0078250
 NucSpn=           1           0           1           1           0           1           1           0           1           1
 AtZEff=  -0.0000000  -0.0000000  -0.0000000  -0.0000000  -0.0000000  -0.0000000  -0.0000000  -0.0000000  -0.0000000  -0.0000000
 NQMom=    0.0000000   0.0000000   0.0000000   0.0000000   0.0000000   0.0000000   0.0000000   0.0000000   0.0000000   0.0000000
 NMagM=    2.7928460   0.0000000   2.7928460   2.7928460   0.0000000   2.7928460   2.7928460   0.0000000   2.7928460   2.7928460
 AtZNuc=   1.0000000   8.0000000   1.0000000   1.0000000   8.0000000   1.0000000   1.0000000   8.0000000   1.0000000   1.0000000

  Atom       221         222         223         224         225         226         227         228         229         230
 IAtWgt=          16           1           1          16           1           1          16           1           1          16
 AtmWgt=  15.9949146   1.0078250   1.0078250  15.9949146   1.0078250   1.0078250  15.9949146   1.0078250   1.0078250  15.9949146
 NucSpn=           0           1           1           0           1           1           0           1           1           0
 AtZEff=  -0.0000000  -0.0000000  -0.0000000  -0.0000000  -0.0000000  -0.0000000  -0.0000000  -0.0000000  -0.0000000  -0.0000000
 NQMom=    0.0000000   0.0000000   0.0000000   0.0000000   0.0000000   0.0000000   0.0000000   0.0000000   0.0000000   0.0000000
 NMagM=    0.0000000   2.7928460   2.7928460   0.0000000   2.7928460   2.7928460   0.0000000   2.7928460   2.7928460   0.0000000
 AtZNuc=   8.0000000   1.0000000   1.0000000   8.0000000   1.0000000   1.0000000   8.0000000   1.0000000   1.0000000   8.0000000

  Atom       231         232         233         234         235         236         237         238         239         240
 IAtWgt=           1           1          16           1           1          16           1           1          16           1
 AtmWgt=   1.0078250   1.0078250  15.9949146   1.0078250   1.0078250  15.9949146   1.0078250   1.0078250  15.9949146   1.0078250
 NucSpn=           1           1           0           1           1           0           1           1           0           1
 AtZEff=  -0.0000000  -0.0000000  -0.0000000  -0.0000000  -0.0000000  -0.0000000  -0.0000000  -0.0000000  -0.0000000  -0.0000000
 NQMom=    0.0000000   0.0000000   0.0000000   0.0000000   0.0000000   0.0000000   0.0000000   0.0000000   0.0000000   0.0000000
 NMagM=    2.7928460   2.7928460   0.0000000   2.7928460   2.7928460   0.0000000   2.7928460   2.7928460   0.0000000   2.7928460
 AtZNuc=   1.0000000   1.0000000   8.0000000   1.0000000   1.0000000   8.0000000   1.0000000   1.0000000   8.0000000   1.0000000

  Atom       241         242         243         244         245         246         247         248         249         250
 IAtWgt=           1          16           1           1          16           1           1          16           1           1
 AtmWgt=   1.0078250  15.9949146   1.0078250   1.0078250  15.9949146   1.0078250   1.0078250  15.9949146   1.0078250   1.0078250
 NucSpn=           1           0           1           1           0           1           1           0           1           1
 AtZEff=  -0.0000000  -0.0000000  -0.0000000  -0.0000000  -0.0000000  -0.0000000  -0.0000000  -0.0000000  -0.0000000  -0.0000000
 NQMom=    0.0000000   0.0000000   0.0000000   0.0000000   0.0000000   0.0000000   0.0000000   0.0000000   0.0000000   0.0000000
 NMagM=    2.7928460   0.0000000   2.7928460   2.7928460   0.0000000   2.7928460   2.7928460   0.0000000   2.7928460   2.7928460
 AtZNuc=   1.0000000   8.0000000   1.0000000   1.0000000   8.0000000   1.0000000   1.0000000   8.0000000   1.0000000   1.0000000

  Atom       251         252         253         254         255         256         257         258         259         260
 IAtWgt=          16           1           1          16           1           1          16           1           1          16
 AtmWgt=  15.9949146   1.0078250   1.0078250  15.9949146   1.0078250   1.0078250  15.9949146   1.0078250   1.0078250  15.9949146
 NucSpn=           0           1           1           0           1           1           0           1           1           0
 AtZEff=  -0.0000000  -0.0000000  -0.0000000  -0.0000000  -0.0000000  -0.0000000  -0.0000000  -0.0000000  -0.0000000  -0.0000000
 NQMom=    0.0000000   0.0000000   0.0000000   0.0000000   0.0000000   0.0000000   0.0000000   0.0000000   0.0000000   0.0000000
 NMagM=    0.0000000   2.7928460   2.7928460   0.0000000   2.7928460   2.7928460   0.0000000   2.7928460   2.7928460   0.0000000
 AtZNuc=   8.0000000   1.0000000   1.0000000   8.0000000   1.0000000   1.0000000   8.0000000   1.0000000   1.0000000   8.0000000

  Atom       261         262         263         264         265         266         267         268         269         270
 IAtWgt=           1           1          16           1           1          16           1           1          16           1
 AtmWgt=   1.0078250   1.0078250  15.9949146   1.0078250   1.0078250  15.9949146   1.0078250   1.0078250  15.9949146   1.0078250
 NucSpn=           1           1           0           1           1           0           1           1           0           1
 AtZEff=  -0.0000000  -0.0000000  -0.0000000  -0.0000000  -0.0000000  -0.0000000  -0.0000000  -0.0000000  -0.0000000  -0.0000000
 NQMom=    0.0000000   0.0000000   0.0000000   0.0000000   0.0000000   0.0000000   0.0000000   0.0000000   0.0000000   0.0000000
 NMagM=    2.7928460   2.7928460   0.0000000   2.7928460   2.7928460   0.0000000   2.7928460   2.7928460   0.0000000   2.7928460
 AtZNuc=   1.0000000   1.0000000   8.0000000   1.0000000   1.0000000   8.0000000   1.0000000   1.0000000   8.0000000   1.0000000

  Atom       271         272         273         274         275         276         277         278         279         280
 IAtWgt=           1          16           1           1          16           1           1          16           1           1
 AtmWgt=   1.0078250  15.9949146   1.0078250   1.0078250  15.9949146   1.0078250   1.0078250  15.9949146   1.0078250   1.0078250
 NucSpn=           1           0           1           1           0           1           1           0           1           1
 AtZEff=  -0.0000000  -0.0000000  -0.0000000  -0.0000000  -0.0000000  -0.0000000  -0.0000000  -0.0000000  -0.0000000  -0.0000000
 NQMom=    0.0000000   0.0000000   0.0000000   0.0000000   0.0000000   0.0000000   0.0000000   0.0000000   0.0000000   0.0000000
 NMagM=    2.7928460   0.0000000   2.7928460   2.7928460   0.0000000   2.7928460   2.7928460   0.0000000   2.7928460   2.7928460
 AtZNuc=   1.0000000   8.0000000   1.0000000   1.0000000   8.0000000   1.0000000   1.0000000   8.0000000   1.0000000   1.0000000

  Atom       281         282         283         284         285         286         287         288         289         290
 IAtWgt=          16           1           1          16           1           1          16           1           1          16
 AtmWgt=  15.9949146   1.0078250   1.0078250  15.9949146   1.0078250   1.0078250  15.9949146   1.0078250   1.0078250  15.9949146
 NucSpn=           0           1           1           0           1           1           0           1           1           0
 AtZEff=  -0.0000000  -0.0000000  -0.0000000  -0.0000000  -0.0000000  -0.0000000  -0.0000000  -0.0000000  -0.0000000  -0.0000000
 NQMom=    0.0000000   0.0000000   0.0000000   0.0000000   0.0000000   0.0000000   0.0000000   0.0000000   0.0000000   0.0000000
 NMagM=    0.0000000   2.7928460   2.7928460   0.0000000   2.7928460   2.7928460   0.0000000   2.7928460   2.7928460   0.0000000
 AtZNuc=   8.0000000   1.0000000   1.0000000   8.0000000   1.0000000   1.0000000   8.0000000   1.0000000   1.0000000   8.0000000

  Atom       291         292         293         294         295         296         297         298         299         300
 IAtWgt=           1           1          16           1           1          16           1           1          16           1
 AtmWgt=   1.0078250   1.0078250  15.9949146   1.0078250   1.0078250  15.9949146   1.0078250   1.0078250  15.9949146   1.0078250
 NucSpn=           1           1           0           1           1           0           1           1           0           1
 AtZEff=  -0.0000000  -0.0000000  -0.0000000  -0.0000000  -0.0000000  -0.0000000  -0.0000000  -0.0000000  -0.0000000  -0.0000000
 NQMom=    0.0000000   0.0000000   0.0000000   0.0000000   0.0000000   0.0000000   0.0000000   0.0000000   0.0000000   0.0000000
 NMagM=    2.7928460   2.7928460   0.0000000   2.7928460   2.7928460   0.0000000   2.7928460   2.7928460   0.0000000   2.7928460
 AtZNuc=   1.0000000   1.0000000   8.0000000   1.0000000   1.0000000   8.0000000   1.0000000   1.0000000   8.0000000   1.0000000

  Atom       301         302         303         304         305         306         307         308         309         310
 IAtWgt=           1          16           1           1          16           1           1          16           1           1
 AtmWgt=   1.0078250  15.9949146   1.0078250   1.0078250  15.9949146   1.0078250   1.0078250  15.9949146   1.0078250   1.0078250
 NucSpn=           1           0           1           1           0           1           1           0           1           1
 AtZEff=  -0.0000000  -0.0000000  -0.0000000  -0.0000000  -0.0000000  -0.0000000  -0.0000000  -0.0000000  -0.0000000  -0.0000000
 NQMom=    0.0000000   0.0000000   0.0000000   0.0000000   0.0000000   0.0000000   0.0000000   0.0000000   0.0000000   0.0000000
 NMagM=    2.7928460   0.0000000   2.7928460   2.7928460   0.0000000   2.7928460   2.7928460   0.0000000   2.7928460   2.7928460
 AtZNuc=   1.0000000   8.0000000   1.0000000   1.0000000   8.0000000   1.0000000   1.0000000   8.0000000   1.0000000   1.0000000

  Atom       311         312         313         314         315         316         317         318         319         320
 IAtWgt=          16           1           1          16           1           1          16           1           1          16
 AtmWgt=  15.9949146   1.0078250   1.0078250  15.9949146   1.0078250   1.0078250  15.9949146   1.0078250   1.0078250  15.9949146
 NucSpn=           0           1           1           0           1           1           0           1           1           0
 AtZEff=  -0.0000000  -0.0000000  -0.0000000  -0.0000000  -0.0000000  -0.0000000  -0.0000000  -0.0000000  -0.0000000  -0.0000000
 NQMom=    0.0000000   0.0000000   0.0000000   0.0000000   0.0000000   0.0000000   0.0000000   0.0000000   0.0000000   0.0000000
 NMagM=    0.0000000   2.7928460   2.7928460   0.0000000   2.7928460   2.7928460   0.0000000   2.7928460   2.7928460   0.0000000
 AtZNuc=   8.0000000   1.0000000   1.0000000   8.0000000   1.0000000   1.0000000   8.0000000   1.0000000   1.0000000   8.0000000

  Atom       321         322         323         324         325         326         327         328         329         330
 IAtWgt=           1           1          16           1           1          16           1           1          16           1
 AtmWgt=   1.0078250   1.0078250  15.9949146   1.0078250   1.0078250  15.9949146   1.0078250   1.0078250  15.9949146   1.0078250
 NucSpn=           1           1           0           1           1           0           1           1           0           1
 AtZEff=  -0.0000000  -0.0000000  -0.0000000  -0.0000000  -0.0000000  -0.0000000  -0.0000000  -0.0000000  -0.0000000  -0.0000000
 NQMom=    0.0000000   0.0000000   0.0000000   0.0000000   0.0000000   0.0000000   0.0000000   0.0000000   0.0000000   0.0000000
 NMagM=    2.7928460   2.7928460   0.0000000   2.7928460   2.7928460   0.0000000   2.7928460   2.7928460   0.0000000   2.7928460
 AtZNuc=   1.0000000   1.0000000   8.0000000   1.0000000   1.0000000   8.0000000   1.0000000   1.0000000   8.0000000   1.0000000

  Atom       331         332         333         334         335         336         337         338         339         340
 IAtWgt=           1          16           1           1          16           1           1          16           1           1
 AtmWgt=   1.0078250  15.9949146   1.0078250   1.0078250  15.9949146   1.0078250   1.0078250  15.9949146   1.0078250   1.0078250
 NucSpn=           1           0           1           1           0           1           1           0           1           1
 AtZEff=  -0.0000000  -0.0000000  -0.0000000  -0.0000000  -0.0000000  -0.0000000  -0.0000000  -0.0000000  -0.0000000  -0.0000000
 NQMom=    0.0000000   0.0000000   0.0000000   0.0000000   0.0000000   0.0000000   0.0000000   0.0000000   0.0000000   0.0000000
 NMagM=    2.7928460   0.0000000   2.7928460   2.7928460   0.0000000   2.7928460   2.7928460   0.0000000   2.7928460   2.7928460
 AtZNuc=   1.0000000   8.0000000   1.0000000   1.0000000   8.0000000   1.0000000   1.0000000   8.0000000   1.0000000   1.0000000

  Atom       341         342         343         344         345         346         347         348         349         350
 IAtWgt=          16           1           1          16           1           1          16           1           1          16
 AtmWgt=  15.9949146   1.0078250   1.0078250  15.9949146   1.0078250   1.0078250  15.9949146   1.0078250   1.0078250  15.9949146
 NucSpn=           0           1           1           0           1           1           0           1           1           0
 AtZEff=  -0.0000000  -0.0000000  -0.0000000  -0.0000000  -0.0000000  -0.0000000  -0.0000000  -0.0000000  -0.0000000  -0.0000000
 NQMom=    0.0000000   0.0000000   0.0000000   0.0000000   0.0000000   0.0000000   0.0000000   0.0000000   0.0000000   0.0000000
 NMagM=    0.0000000   2.7928460   2.7928460   0.0000000   2.7928460   2.7928460   0.0000000   2.7928460   2.7928460   0.0000000
 AtZNuc=   8.0000000   1.0000000   1.0000000   8.0000000   1.0000000   1.0000000   8.0000000   1.0000000   1.0000000   8.0000000

  Atom       351         352         353         354         355         356         357         358         359         360
 IAtWgt=           1           1          16           1           1          16           1           1          16           1
 AtmWgt=   1.0078250   1.0078250  15.9949146   1.0078250   1.0078250  15.9949146   1.0078250   1.0078250  15.9949146   1.0078250
 NucSpn=           1           1           0           1           1           0           1           1           0           1
 AtZEff=  -0.0000000  -0.0000000  -0.0000000  -0.0000000  -0.0000000  -0.0000000  -0.0000000  -0.0000000  -0.0000000  -0.0000000
 NQMom=    0.0000000   0.0000000   0.0000000   0.0000000   0.0000000   0.0000000   0.0000000   0.0000000   0.0000000   0.0000000
 NMagM=    2.7928460   2.7928460   0.0000000   2.7928460   2.7928460   0.0000000   2.7928460   2.7928460   0.0000000   2.7928460
 AtZNuc=   1.0000000   1.0000000   8.0000000   1.0000000   1.0000000   8.0000000   1.0000000   1.0000000   8.0000000   1.0000000

  Atom       361         362         363         364         365         366         367         368         369         370
 IAtWgt=           1          16           1           1          16           1           1          16           1           1
 AtmWgt=   1.0078250  15.9949146   1.0078250   1.0078250  15.9949146   1.0078250   1.0078250  15.9949146   1.0078250   1.0078250
[...]
 4.864209\O,0,-0.116746,-1.982766,-4.672101\H,0,-0.200715,-2.946688,-4.
 725642\H,0,-5.039754,2.388646,-1.126337\O,0,-4.672555,1.575013,-1.5234
 85\H,0,-3.980064,1.290275,-0.880803\H,0,-3.578801,3.289295,2.635536\O,
 0,-2.854997,2.682963,2.386326\H,0,-2.076153,3.024718,2.862928\H,0,2.43
 8276,0.371796,-2.998243\O,0,1.849414,-0.278412,-2.563882\H,0,0.938876,
 0.026376,-2.74195\H,0,-1.269108,0.405449,-3.575252\O,0,-0.461967,0.887
 848,-3.300027\H,0,-0.700675,1.46699,-2.557491\H,0,2.642227,-0.55091,0.
 488354\O,0,2.541399,-1.284337,-0.153307\H,0,2.255865,-0.885524,-0.9970
 84\H,0,-2.907513,-0.47145,-0.552248\O,0,-3.057767,-0.916864,-1.396688\
 H,0,-3.854581,-1.471975,-1.314967\H,0,2.741322,1.315364,-0.843143\O,0,
 1.918986,1.817426,-0.70193\H,0,1.214472,1.158938,-0.523772\H,0,0.41832
 8,3.274471,-3.188954\O,0,1.343473,3.094459,-2.976068\H,0,1.369386,2.61
 6152,-2.12724\H,0,0.100978,-3.963362,-0.650247\O,0,-0.138684,-4.639132
 ,-1.324272\H,0,-0.90928,-5.107618,-0.929379\H,0,-6.248757,2.02594,3.18
 3512\O,0,-6.288015,2.207544,4.159014\H,0,-7.025889,1.665523,4.501339\H
 ,0,1.151897,-3.722522,1.186503\O,0,0.719513,-3.068278,0.607621\H,0,1.3
 87746,-2.39789,0.357546\H,0,-3.01534,5.231207,-0.832701\O,0,-2.816058,
 4.424954,-0.320719\H,0,-3.696284,4.045627,-0.11683\H,0,-5.509276,-1.34
 3238,1.76246\O,0,-5.257791,-0.690662,1.074473\H,0,-5.378771,-1.134669,
 0.229812\H,0,-0.297084,-3.253918,2.967409\O,0,0.013542,-2.448576,3.414
 589\H,0,0.952624,-2.336219,3.192555\H,0,5.163227,1.116549,-1.260206\O,
 0,4.387587,0.573903,-1.061046\H,0,4.637269,0.143475,-0.210826\H,0,0.68
 2596,2.395055,1.076681\O,0,0.696664,2.040191,1.97481\H,0,0.095247,1.27
 4756,2.023058\H,0,4.354593,-0.396776,-2.440009\O,0,4.541825,-0.8652,-3
 .285754\H,0,5.005067,-0.204629,-3.841635\H,0,2.949719,3.321307,-1.0006
 35\O,0,3.824344,3.732089,-0.990958\H,0,4.294133,3.458668,-1.801695\H,0
 ,-5.953248,-1.498572,-1.818657\O,0,-5.408479,-2.202038,-1.403542\H,0,-
 5.330528,-2.905301,-2.071195\H,0,-4.901456,-4.118895,1.248837\O,0,-5.6
 00708,-3.488776,0.992372\H,0,-5.391025,-3.185914,0.09871\H,0,2.567464,
 2.262214,-3.683314\O,0,3.242738,1.592429,-3.917005\H,0,3.292659,1.5747
 15,-4.878274\H,0,-5.158236,3.743268,3.915457\O,0,-4.6028,4.346229,3.41
 007\H,0,-4.067196,4.870847,4.042917\H,0,0.482611,1.122287,-4.729326\O,
 0,0.95682,1.027344,-5.581035\H,0,1.571377,0.275974,-5.449351\H,0,0.885
 453,5.857773,-2.196098\O,0,1.690729,5.529255,-1.760978\H,0,2.233558,5.
 099447,-2.451125\H,0,-2.846645,-3.454389,-1.816135\O,0,-2.973521,-3.72
 5746,-0.891263\H,0,-3.732041,-4.325537,-0.857901\H,0,1.895027,5.291459
 ,-4.480903\O,0,1.010642,5.381216,-4.876459\H,0,0.990024,4.697842,-5.57
 3067\H,0,7.684583,1.935266,-1.033595\O,0,6.892636,1.583931,-1.478078\H
 ,0,7.24307,0.913411,-2.098733\H,0,4.43796,2.825501,0.296454\O,0,4.7937
 5,2.451393,1.127516\H,0,4.729308,3.184412,1.774275\H,0,0.996697,-3.109
 753,-2.282807\O,0,1.844147,-2.940448,-2.71994\H,0,1.922703,-1.963342,-
 2.731538\H,0,1.086046,4.640051,-0.532409\O,0,0.647307,4.150014,0.19933
 2\H,0,-0.027845,4.746301,0.569759\H,0,-5.773119,0.925838,1.371118\O,0,
 -6.261893,1.745132,1.58784\H,0,-7.197273,1.504604,1.36571\H,0,-2.29526
 8,-2.658843,0.237235\O,0,-1.809699,-2.096297,0.870535\H,0,-0.898228,-2
 .431486,0.841757\H,0,-3.632337,-0.474758,4.325309\O,0,-3.603274,-0.627
 848,5.297342\H,0,-4.346187,-1.219064,5.55643\H,0,-6.017381,-2.992826,3
 .268837\O,0,-5.578903,-2.131239,3.365609\H,0,-4.62445,-2.348915,3.3388
 91\H,0,-2.968032,-0.356784,-2.960895\O,0,-2.725407,-0.39947,-3.912858\
 H,0,-2.561398,-1.363505,-4.014028\H,0,-3.540804,-3.340693,-3.737709\O,
 0,-2.678843,-2.956763,-3.504849\H,0,-1.987583,-3.580716,-3.802001\H,0,
 3.090958,-1.031711,-4.374896\O,0,2.523132,-1.140847,-5.161617\H,0,3.14
 1841,-1.285979,-5.895428\H,0,4.465512,2.535929,-6.676879\O,0,3.942536,
 1.708549,-6.698002\H,0,3.09419,1.944711,-7.082319\H,0,-4.115538,0.7898
 16,5.876059\O,0,-4.599348,1.605097,6.166228\H,0,-5.18181,1.839553,5.41
 5637\H,0,-3.953866,-0.178026,2.067215\O,0,-3.402401,0.12386,2.809123\H
 ,0,-3.329562,1.09785,2.747559\H,0,-5.898825,0.576541,-2.122515\O,0,-6.
 4457,-0.082395,-2.598217\H,0,-6.036216,-0.154401,-3.482062\H,0,1.78587
 9,-3.702427,-4.27503\O,0,1.715254,-4.142888,-5.144666\H,0,1.324138,-5.
 012734,-4.962333\H,0,4.441573,-3.50184,-0.849555\O,0,4.727154,-2.76090
 3,-0.271685\H,0,3.958953,-2.143106,-0.240756\H,0,-0.338102,3.044696,-0
 .834044\O,0,-1.093629,2.673147,-1.319773\H,0,-1.81105,3.320633,-1.1583
 27\H,0,1.711567,4.377302,1.616109\O,0,2.182812,4.49691,2.460623\H,0,2.
 012225,3.693401,2.976892\H,0,3.68064,1.174071,1.577022\O,0,2.916527,0.
 586597,1.735939\H,0,2.143411,1.161138,1.896529\H,0,3.084675,-3.875614,
 -2.26414\O,0,3.79708,-4.503521,-1.988789\H,0,4.461154,-4.479734,-2.695
 178\H,0,4.859247,-3.617148,-4.74541\O,0,5.305531,-3.320423,-3.91472\H,
 0,4.898186,-2.472847,-3.642378\H,0,-1.121134,4.996944,2.25062\O,0,-1.3
 22467,5.569127,1.473318\H,0,-1.9655,5.080643,0.897569\H,0,-5.750333,3.
 115805,0.667033\O,0,-5.319034,3.639857,-0.034712\H,0,-5.781193,4.49472
 3,-0.156252\H,0,5.070418,-3.873352,2.694521\O,0,4.302909,-3.693622,2.1
 44508\H,0,4.612986,-3.378862,1.266152\H,0,6.096179,-1.140223,1.22734\O
 ,0,5.520304,-0.331339,1.167221\H,0,6.165319,0.388419,1.229563\H,0,1.55
 1371,-6.585229,-3.272035\O,0,1.351555,-6.780664,-4.213032\H,0,2.217841
 ,-6.836434,-4.642359\H,0,-7.201538,-3.702557,0.8279\O,0,-8.173605,-3.7
 01417,0.64796\H,0,-8.616125,-3.535664,1.508775\H,0,3.268301,-2.463237,
 2.646651\O,0,2.580116,-1.806971,2.865034\H,0,2.786336,-0.986249,2.3819
 77\H,0,-1.875172,2.536974,5.190819\O,0,-2.595013,3.169567,5.371475\H,0
 ,-3.322009,2.648471,5.761844\H,0,-0.780361,0.796683,4.014674\O,0,-0.64
 7147,1.329738,4.830375\H,0,0.185522,1.793651,4.690912\H,0,0.035747,3.6
 292,-6.855341\O,0,0.994601,3.436975,-6.760456\H,0,1.028895,2.574664,-6
 .304379\H,0,7.238075,-2.977401,4.559519\O,0,6.476393,-3.350719,4.02490
 9\H,0,5.676107,-3.001732,4.494095\H,0,8.262405,1.610593,1.374019\O,0,8
 .275983,0.686166,1.684844\H,0,8.544193,0.138157,0.916092\H,0,-4.231182
 ,-0.406077,-4.598437\O,0,-5.166719,-0.447014,-4.914231\H,0,-5.177857,-
 0.049315,-5.80628\H,0,6.359754,-1.284941,-2.369283\O,0,6.791879,-1.758
 672,-1.653287\H,0,6.07657,-2.059029,-1.060269\H,0,4.76051,-0.890764,4.
 286205\O,0,5.150211,-0.129371,3.826403\H,0,5.081403,-0.273653,2.859391
 \H,0,-0.03149,3.239227,2.951809\O,0,-0.657688,3.878573,3.347242\H,0,-0
 .330041,4.117924,4.235788\H,0,8.141987,-1.070242,-0.951741\O,0,8.94210
 8,-0.721993,-0.492435\H,0,9.647882,-1.376325,-0.656733\H,0,9.719308,-4
 .072146,1.896231\O,0,9.393772,-3.72219,1.023053\H,0,10.150665,-3.58504
 5,0.436824\H,0,-2.336438,-2.713914,3.813757\O,0,-2.975332,-2.788188,3.
 094769\H,0,-2.540829,-2.434353,2.278203\H,0,-2.355484,0.925879,-6.2223
 65\O,0,-2.991482,1.668123,-6.228553\H,0,-3.225041,1.825096,-5.289918\H
 ,0,-1.438369,3.979711,-5.393525\O,0,-1.582049,3.968782,-6.368491\H,0,-
 2.168192,3.205499,-6.518243\H,0,-4.614665,-6.242415,-1.23085\O,0,-5.08
 5064,-5.510183,-0.804959\H,0,-5.868314,-5.328683,-1.367709\H,0,2.65035
 5,-5.708042,-1.729542\O,0,1.852861,-6.267973,-1.640894\H,0,1.085385,-5
 .649302,-1.494385\H,0,3.153432,-4.058851,-5.845193\O,0,4.107438,-4.034
 474,-6.132967\H,0,4.19973,-3.280813,-6.722043\H,0,7.442604,3.502035,1.
 959018\O,0,7.341124,3.184655,1.052043\H,0,6.416533,2.835911,1.013858\H
 ,0,6.632983,-3.77593,0.0725\O,0,7.120977,-4.575166,-0.189386\H,0,8.014
 ,-4.416751,0.175471\H,0,-7.554434,-4.422975,-2.428785\O,0,-7.311262,-5
 .355597,-2.235924\H,0,-7.913396,-5.651239,-1.52645\H,0,-4.384158,6.618
 388,5.175575\O,0,-3.499792,6.298579,4.914809\H,0,-2.996797,6.076106,5.
 71314\H,0,7.297175,3.514383,4.722909\O,0,7.281201,3.139936,3.83299\H,0
 ,7.537447,2.198898,3.940749\H,0,-5.697323,0.668747,7.06669\O,0,-6.4549
 14,0.11165,7.360897\H,0,-6.173406,-0.803706,7.196456\H,0,-0.535435,-4.
 773911,-3.038827\O,0,-0.724973,-4.655574,-3.987463\H,0,-1.318078,-5.36
 5625,-4.265097\H,0,6.718213,0.274219,4.319413\O,0,7.654714,0.570675,4.
 268377\H,0,7.919716,0.378,3.34373\H,0,4.739605,-6.458963,-4.174669\O,0
 ,4.033456,-6.627603,-4.835069\H,0,4.135991,-5.940819,-5.502248\H,0,-6.
 057475,-1.795179,-5.180657\O,0,-6.667845,-2.562743,-5.297875\H,0,-7.53
 1343,-2.144138,-5.549604\H,0,-7.579841,0.42556,6.180914\O,0,-8.16164,0
 .770095,5.456799\H,0,-8.770751,1.381148,5.874609\H,0,-5.281235,5.64379
 7,2.528546\O,0,-5.53315,6.559764,2.291989\H,0,-4.681379,7.043384,2.266
 919\H,0,5.622271,1.786184,-4.113512\O,0,5.85724,1.019649,-4.680848\H,0
 ,5.3443,1.125717,-5.484577\H,0,-5.970884,6.397834,0.645169\O,0,-6.0166
 09,6.195723,-0.312776\H,0,-5.137195,6.450418,-0.663845\H,0,-0.305591,-
 7.350997,-3.34397\O,0,-0.989865,-7.499598,-2.681072\H,0,-0.570569,-7.8
 60551,-1.891071\H,0,-2.43354,-1.748799,5.513212\O,0,-1.770523,-2.47151
 1,5.622106\H,0,-0.937516,-2.000252,5.812897\H,0,7.482684,-4.352802,-1.
 849558\O,0,7.580111,-4.316413,-2.825931\H,0,6.793726,-3.839139,-3.1427
 32\H,0,-8.915731,-2.925766,-3.18012\O,0,-7.987844,-2.842758,-2.86139\H
 ,0,-7.4629,-2.628351,-3.647583\H,0,8.743382,-3.116001,-3.208051\O,0,9.
 365087,-2.380716,-3.395873\H,0,8.857266,-1.558784,-3.271274\H,0,-5.164
 484,-4.90907,-3.614417\O,0,-5.135064,-3.949038,-3.463086\H,0,-5.675566
 ,-3.54487,-4.153053\H,0,-3.823826,4.075187,-3.366765\O,0,-3.534183,4.9
 23443,-2.993274\H,0,-3.842551,5.632136,-3.55927\H,0,-0.4386,4.857718,-
 3.944008\O,0,-1.083314,4.154204,-3.749989\H,0,-1.862495,4.58104,-3.339
 947\H,0,-1.829366,-4.222024,5.276392\O,0,-2.121282,-5.077704,4.924692\
 H,0,-3.06087,-4.937715,4.713125\H,0,-2.629103,8.464494,-3.510019\O,0,-
 2.825522,7.513401,-3.634129\H,0,-2.64593,7.301566,-4.576634\H,0,-3.036
 825,7.212711,3.45991\O,0,-2.987911,7.431834,2.514237\H,0,-2.390903,6.7
 56573,2.132088\H,0,4.838527,1.520494,4.090027\O,0,4.668902,2.478135,3.
 950695\H,0,5.535581,2.851455,3.700158\H,0,8.118688,-1.886708,6.040035\
 O,0,8.546977,-2.403044,5.328366\H,0,9.019934,-1.754701,4.752985\H,0,6.
 178459,-1.619493,7.550069\O,0,6.864879,-1.074489,7.152157\H,0,6.383686
 ,-0.317444,6.748635\H,0,-1.996597,5.799028,-6.306844\O,0,-2.136921,6.7
 333,-6.088875\H,0,-1.273257,7.170425,-6.195591\H,0,-8.147775,-0.365227
 ,4.110137\O,0,-7.976049,-0.880923,3.309662\H,0,-7.065892,-1.220372,3.3
 81568\H,0,-8.56302,0.047193,0.374211\O,0,-8.58326,0.669724,1.119921\H,
 0,-8.531386,0.107373,1.911577\H,0,0.925666,-0.664643,5.849914\O,0,0.10
 5212,-0.760155,6.388362\H,0,-0.412461,0.014841,6.109099\H,0,-0.62853,7
 .056261,-1.504681\O,0,-0.602782,6.692357,-2.41244\H,0,-1.469943,6.8917
 74,-2.831841\H,0,0.631643,-8.019178,0.359561\O,0,-0.27716,-8.271079,0.
 135148\H,0,-0.70763,-8.358419,1.013319\H,0,2.056903,2.577918,5.232156\
 O,0,2.047786,2.319046,4.286395\H,0,2.98298,2.356923,4.013597\H,0,-8.09
 7082,-5.449108,-5.479603\O,0,-7.210582,-5.288924,-5.842819\H,0,-7.0658
 34,-4.33641,-5.770209\H,0,3.097277,-7.557508,0.793547\O,0,2.205815,-7.
 200661,0.776951\H,0,2.09806,-6.845253,-0.142574\H,0,3.040087,5.903244,
 -7.379732\O,0,3.200166,4.946442,-7.526382\H,0,2.381078,4.482713,-7.292
 804\H,0,-0.63043,6.970161,0.664222\O,0,-0.345994,7.692168,0.078715\H,0
 ,-1.027098,8.374758,0.162006\H,0,4.467014,3.588001,5.179708\O,0,4.3903
 63,4.219184,5.936233\H,0,5.279607,4.281126,6.295202\H,0,7.721337,2.732
 757,6.667826\O,0,7.17986,3.566736,6.629293\H,0,7.672729,4.221605,7.122
 296\H,0,4.059266,-7.925571,-1.327226\O,0,4.587785,-7.40056,-0.703982\H
 ,0,5.009402,-6.736106,-1.272588\H,0,6.661918,-5.802437,-2.993639\O,0,5
 .901252,-6.410413,-2.942022\H,0,6.249325,-7.319356,-2.901508\H,0,-8.95
 5334,-2.275628,3.138679\O,0,-9.437127,-3.093921,2.894641\H,0,-10.18987
 8,-2.784497,2.362605\H,0,-2.797152,8.701252,1.244521\O,0,-2.680243,9.0
 79289,0.357001\H,0,-3.486248,9.635576,0.217774\H,0,8.240312,0.624987,7
 .343189\O,0,8.54936,1.30212,6.724963\H,0,8.310935,0.922475,5.846611\H,
 0,-2.296868,4.923838,7.810955\O,0,-2.039692,5.16521,6.922242\H,0,-2.23
 5612,4.369519,6.342568\H,0,-6.362683,-6.386885,-3.342459\O,0,-5.708672
 ,-6.560237,-4.04397\H,0,-6.171848,-6.260995,-4.856067\H,0,6.799353,-2.
 721578,2.525302\O,0,6.938741,-2.502459,1.565825\H,0,7.889082,-2.611852
 ,1.396314\H,0,2.184145,6.755849,-0.757832\O,0,2.445279,7.485827,-0.152
 645\H,0,1.605762,7.806198,0.199702\H,0,-4.241398,-7.314163,-2.966779\O
 ,0,-3.660772,-7.370193,-2.199165\H,0,-2.757458,-7.474451,-2.548546\H,0
 ,0.624487,6.84783,-5.521289\O,0,0.433612,7.727125,-5.923414\H,0,0.4617
 42,8.343419,-5.162521\H,0,-8.354593,-1.671439,-1.526619\O,0,-8.628688,
 -1.425535,-0.629409\H,0,-8.37854,-2.222814,-0.110183\H,0,-3.448798,7.1
 39647,-1.974204\O,0,-3.522791,6.938561,-1.031575\H,0,-3.217341,7.73382
 6,-0.546683\H,0,2.860764,-4.576149,2.134575\O,0,1.949213,-4.928799,2.1
 53725\H,0,2.005774,-5.80957,1.729557\H,0,-8.992296,-0.722429,-4.853123
 \O,0,-8.916625,-1.281171,-5.661651\H,0,-8.653805,-0.663334,-6.366583\H
 ,0,7.388717,0.122285,-4.102002\O,0,8.053088,0.077501,-3.394652\H,0,8.7
 11974,0.756717,-3.597456\H,0,4.092557,6.726931,-0.055207\O,0,4.802686,
 6.104373,-0.279757\H,0,4.346503,5.266863,-0.517944\H,0,-8.088235,0.154
 044,-3.036956\O,0,-8.994602,0.169285,-3.408265\H,0,-9.578626,-0.086631
 ,-2.693014\H,0,5.947672,3.941608,-3.359678\O,0,5.488739,3.143495,-3.03
 8532\H,0,6.094884,2.71231,-2.391133\H,0,-1.324245,-6.925456,-0.03906\O
 ,0,-1.950142,-6.186628,-0.183138\H,0,-2.557413,-6.482815,-0.868052\H,0
 ,-3.917971,-7.847725,0.900382\O,0,-4.126803,-7.6134,1.807661\H,0,-3.91
 9487,-6.651617,1.887865\H,0,-2.846549,-5.136157,1.109605\O,0,-3.544243
 ,-5.038927,1.777914\H,0,-3.253038,-4.332086,2.389194\H,0,5.370745,-6.2
 44801,4.534041\O,0,4.600449,-6.002489,4.016532\H,0,4.8776,-6.066723,3.
 087328\H,0,-9.655865,-6.205316,-3.823527\O,0,-9.695269,-5.727353,-4.68
 3717\H,0,-10.343692,-6.192723,-5.212492\H,0,6.300653,-5.62197,0.915432
 \O,0,5.809529,-6.232291,1.503296\H,0,5.344008,-6.81333,0.890146\H,0,-1
 .301864,-6.810108,2.437865\O,0,-1.433419,-7.772689,2.473968\H,0,-2.392
 497,-7.905104,2.487877\H,0,-10.195083,-4.032819,-4.346101\O,0,-10.3261
 88,-3.11418,-4.056624\H,0,-10.116432,-2.546107,-4.810355\H,0,0.252092,
 8.031772,-3.111511\O,0,0.555211,8.877746,-3.502681\H,0,1.462826,9.0197
 01,-3.161927\H,0,-9.142484,-7.981225,-2.48942\O,0,-9.737788,-7.23068,-
 2.461618\H,0,-9.602722,-6.813744,-1.591407\H,0,2.12342,0.578684,4.5210
 55\O,0,2.234755,-0.281399,4.968968\H,0,2.440517,-0.944461,4.276431\H,0
 ,-6.787681,0.490501,-7.446498\O,0,-7.744223,0.564731,-7.295296\H,0,-7.
 900727,1.459084,-6.989682\H,0,5.97159,4.105847,-7.360257\O,0,5.400321,
 4.021054,-6.596924\H,0,4.543146,4.477726,-6.861078\H,0,-5.478707,10.22
 1486,0.971336\O,0,-5.006951,10.264101,0.128788\H,0,-5.602085,9.788006,
 -0.483396\H,0,-0.983168,-1.003415,-5.774509\O,0,-1.168768,-0.334951,-6
 .469356\H,0,-0.388515,0.250451,-6.422209\H,0,4.530306,-0.249747,-7.074
 421\O,0,4.628151,-1.186804,-6.873772\H,0,5.485726,-1.287629,-6.424328\
 H,0,2.490758,-8.759488,-2.885755\O,0,3.446808,-8.679694,-2.902426\H,0,
 3.651615,-8.075897,-3.631654\H,0,-4.469027,-0.315301,-7.802774\O,0,-4.
 977511,0.426553,-7.44118\H,0,-4.297154,1.067649,-7.132673\H,0,1.401439
 ,3.614777,6.702158\O,0,2.157389,3.023126,6.883264\H,0,2.963369,3.55629
 ,6.752515\H,0,-11.368068,-2.749744,0.20173\O,0,-10.943698,-2.122999,0.
 787956\H,0,-10.226739,-1.713951,0.271831\H,0,-7.316783,1.77956,7.79378
 5\O,0,-7.79985,2.616617,7.738409\H,0,-7.900798,2.935004,8.634913\H,0,6
 .191589,-8.962787,-1.497791\O,0,6.254524,-9.061542,-2.452808\H,0,5.364
 683,-9.28942,-2.749993\H,0,6.477709,5.317151,-0.850061\O,0,7.118105,4.
 6649,-1.15267\H,0,7.328568,4.121886,-0.36509\H,0,-5.260694,-3.013812,5
 .892169\O,0,-5.268321,-2.263235,6.526375\H,0,-4.622649,-2.523648,7.206
 002\H,0,2.707468,1.36458,7.429904\O,0,3.179201,0.527077,7.317949\H,0,2
 .846218,0.155104,6.474243\H,0,-2.571999,-3.00839,7.042368\O,0,-3.03904
 1,-3.163006,7.891847\H,0,-2.405785,-2.841837,8.5502\H,0,5.852068,1.968
 755,6.562296\O,0,5.564453,1.097075,6.285183\H,0,4.690096,0.931538,6.69
 4733\H,0,2.060785,-4.411635,3.980459\O,0,2.560588,-4.361778,4.807941\H
 ,0,3.26482,-5.024369,4.695539\H,0,10.362709,-2.638448,-2.10059\O,0,10.
 853148,-2.631213,-1.233187\H,0,11.714857,-2.268598,-1.466159\H,0,3.678
 323,8.37806,-2.812279\O,0,3.002432,8.938985,-2.41217\H,0,2.851571,8.56
 9408,-1.522923\H,0,-8.143723,-6.547838,0.429075\O,0,-8.80751,-6.120818
 ,-0.13649\H,0,-8.756585,-5.176272,0.150551\H,0,-0.955412,9.733046,-3.0
 57317\O,0,-1.89009,9.885407,-2.821109\H,0,-1.935767,9.985358,-1.867746
 \H,0,3.939458,4.129929,-3.781118\O,0,3.379937,4.91233,-3.778305\H,0,3.
 938472,5.688353,-3.56437\H,0,5.004967,6.684232,-1.952565\O,0,4.912514,
 6.911247,-2.898615\H,0,5.687631,6.570011,-3.362797\H,0,-0.354545,5.070
 706,6.194117\O,0,0.359174,4.608171,5.732718\H,0,1.038694,5.262764,5.44
 1344\H,0,3.204407,5.503257,5.182703\O,0,2.428286,5.945262,4.80707\H,0,
 2.358125,5.631204,3.891659\H,0,-7.325748,8.9162,0.165412\O,0,-7.053828
 ,8.712292,-0.739089\H,0,-6.811996,7.769377,-0.734202\H,0,-1.230332,-5.
 105866,3.508224\O,0,-0.804293,-4.995364,2.627677\H,0,0.119268,-5.25096
 9,2.698585\H,0,4.341284,-2.213491,6.097797\O,0,4.318728,-2.350341,5.12
 671\H,0,3.60726,-3.000826,4.958916\H,0,7.183933,-6.14754,2.886302\O,0,
 7.576449,-5.796854,3.695526\H,0,7.10185,-4.961942,3.873265\H,0,9.18394
 6,-5.213473,3.603818\O,0,9.952373,-4.608313,3.480006\H,0,9.82261,-3.96
 2198,4.190639\H,0,2.738494,8.122853,-7.965359\O,0,2.76576,7.570616,-7.
 185353\H,0,1.902406,7.704433,-6.723645\H,0,-0.449947,-1.467146,8.09465
 8\O,0,-0.635524,-2.118098,8.786005\H,0,0.080475,-2.757361,8.731732\H,0
 ,8.210035,4.620578,-2.369064\O,0,8.872754,4.661813,-3.106516\H,0,9.598
 065,5.1813,-2.759676\H,0,6.161626,4.856449,-5.223547\O,0,6.500112,5.24
 0093,-4.392958\H,0,7.450204,5.089099,-4.33202\H,0,10.472554,2.351126,-
 4.378555\O,0,9.75831,2.220705,-3.756392\H,0,9.371897,3.104581,-3.56427
 1\H,0,3.297276,-2.532587,7.76928\O,0,4.125039,-2.014003,7.763103\H,0,3
 .841548,-1.092473,7.863028\H,0,-2.657533,-1.827131,-8.757222\O,0,-3.05
 1313,-1.514928,-7.943522\H,0,-2.339575,-1.06253,-7.441128\H,0,5.027442
 ,5.423299,1.525564\O,0,4.844371,4.851644,2.281513\H,0,3.877549,4.86492
 3,2.403933\H,0,-3.853009,-6.251008,-4.85077\O,0,-3.052899,-5.728503,-4
 .941031\H,0,-3.303239,-4.94464,-5.45536\H,0,-6.566696,6.012348,5.19826
 \O,0,-6.145984,6.846459,4.919081\H,0,-6.035649,6.782249,3.94448\H,0,-7
 .410864,3.950127,6.398742\O,0,-7.174812,4.397827,5.57658\H,0,-6.93576,
 3.68433,4.962949\H,0,-7.35242,9.377922,2.808904\O,0,-7.133948,9.787674
 ,1.946856\H,0,-7.611747,10.617488,1.923313\H,0,-5.903979,-7.033104,1.7
 20806\O,0,-6.533633,-6.402135,1.338503\H,0,-6.017437,-5.941649,0.64264
 5\H,0,-3.597067,-4.877236,7.635361\O,0,-3.832935,-5.716089,7.199882\H,
 0,-3.050931,-5.971392,6.696824\H,0,9.468033,0.942083,-0.914593\O,0,9.5
 43003,1.918135,-0.966152\H,0,9.821439,2.072573,-1.880935\H,0,-7.891185
 ,-4.341015,3.379906\O,0,-6.962894,-4.595092,3.355896\H,0,-6.846095,-5.
 221459,2.613018\H,0,1.193587,-2.408563,6.838817\O,0,1.707397,-3.151057
 ,7.174566\H,0,1.909335,-3.70619,6.405133\H,0,-3.625646,-2.791613,-6.78
 9529\O,0,-4.01765,-3.434165,-6.180015\H,0,-4.969274,-3.311345,-6.23638
 5\H,0,-8.741294,8.219199,4.231595\O,0,-7.953884,8.757584,4.324231\H,0,
 -7.261039,8.163001,4.68169\H,0,7.859782,-1.928832,-5.400342\O,0,6.9328
 42,-1.685141,-5.395586\H,0,6.485142,-2.342273,-4.829481\H,0,-4.753515,
 -5.062403,5.818347\O,0,-4.824202,-4.465706,5.047638\H,0,-5.597838,-4.7
 13276,4.52105\\Version=ES64L-G16RevB.01\HF=-60.9345912\RMSD=1.863e-09\
 Dipole=4.6708402,-0.297346,-2.6086963\Quadrupole=39.4428447,-30.798658
 5,-8.6441862,-36.5822089,-33.7650241,-15.084697\PG=C01 [X(H400O200)]\\
 @


 LENDING MONEY TO FRIENDS CAUSES THEM TO LOSE THEIR MEMORIES.

    --  PETER'S THEORY OF RECIPROCAL INHIBITION OF FISCAL RECALL
 Job cpu time:       0 days  5 hours 22 minutes 19.8 seconds.
 Elapsed time:       0 days  0 hours 13 minutes 27.4 seconds.
 File lengths (MBytes):  RWF=    639 Int=      0 D2E=      0 Chk=    114 Scr=      1
 Normal termination of Gaussian 16 at Mon Jan 25 15:21:33 2021.
