
                                 *****************
                                 * O   R   C   A *
                                 *****************

                                            #,                                       
                                            ###                                      
                                            ####                                     
                                            #####                                    
                                            ######                                   
                                           ########,                                 
                                     ,,################,,,,,                         
                               ,,#################################,,                 
                          ,,##########################################,,             
                       ,#########################################, ''#####,          
                    ,#############################################,,   '####,        
                  ,##################################################,,,,####,       
                ,###########''''           ''''###############################       
              ,#####''   ,,,,##########,,,,          '''####'''          '####       
            ,##' ,,,,###########################,,,                        '##       
           ' ,,###''''                  '''############,,,                           
         ,,##''                                '''############,,,,        ,,,,,,###''
      ,#''                                            '''#######################'''  
     '                                                          ''''####''''         
             ,#######,   #######,   ,#######,      ##                                
            ,#'     '#,  ##    ##  ,#'     '#,    #''#        ######   ,####,        
            ##       ##  ##   ,#'  ##            #'  '#       #        #'  '#        
            ##       ##  #######   ##           ,######,      #####,   #    #        
            '#,     ,#'  ##    ##  '#,     ,#' ,#      #,         ##   #,  ,#        
             '#######'   ##     ##  '#######'  #'      '#     #####' # '####'        



                  #######################################################
                  #                        -***-                        #
                  #          Department of theory and spectroscopy      #
                  #    Directorship and core code : Frank Neese         #
                  #        Max Planck Institute fuer Kohlenforschung    #
                  #                Kaiser Wilhelm Platz 1               #
                  #                 D-45470 Muelheim/Ruhr               #
                  #                      Germany                        #
                  #                                                     #
                  #                  All rights reserved                #
                  #                        -***-                        #
                  #######################################################


                         Program Version 5.0.1 -  RELEASE  -


 With contributions from (in alphabetic order):
   Daniel Aravena         : Magnetic Suceptibility
   Michael Atanasov       : Ab Initio Ligand Field Theory (pilot matlab implementation)
   Alexander A. Auer      : GIAO ZORA, VPT2 properties, NMR spectrum
   Ute Becker             : Parallelization
   Giovanni Bistoni       : ED, misc. LED, open-shell LED, HFLD
   Martin Brehm           : Molecular dynamics
   Dmytro Bykov           : SCF Hessian
   Vijay G. Chilkuri      : MRCI spin determinant printing, contributions to CSF-ICE
   Dipayan Datta          : RHF DLPNO-CCSD density
   Achintya Kumar Dutta   : EOM-CC, STEOM-CC
   Dmitry Ganyushin       : Spin-Orbit,Spin-Spin,Magnetic field MRCI
   Miquel Garcia          : C-PCM and meta-GGA Hessian, CC/C-PCM, Gaussian charge scheme
   Yang Guo               : DLPNO-NEVPT2, F12-NEVPT2, CIM, IAO-localization
   Andreas Hansen         : Spin unrestricted coupled pair/coupled cluster methods
   Benjamin Helmich-Paris : MC-RPA, TRAH-SCF, COSX integrals
   Lee Huntington         : MR-EOM, pCC
   Robert Izsak           : Overlap fitted RIJCOSX, COSX-SCS-MP3, EOM
   Marcus Kettner         : VPT2
   Christian Kollmar      : KDIIS, OOCD, Brueckner-CCSD(T), CCSD density, CASPT2, CASPT2-K
   Simone Kossmann        : Meta GGA functionals, TD-DFT gradient, OOMP2, MP2 Hessian
   Martin Krupicka        : Initial AUTO-CI
   Lucas Lang             : DCDCAS
   Marvin Lechner         : AUTO-CI (C++ implementation), FIC-MRCC
   Dagmar Lenk            : GEPOL surface, SMD
   Dimitrios Liakos       : Extrapolation schemes; Compound Job, initial MDCI parallelization
   Dimitrios Manganas     : Further ROCIS development; embedding schemes
   Dimitrios Pantazis     : SARC Basis sets
   Anastasios Papadopoulos: AUTO-CI, single reference methods and gradients
   Taras Petrenko         : DFT Hessian,TD-DFT gradient, ASA, ECA, R-Raman, ABS, FL, XAS/XES, NRVS
   Peter Pinski           : DLPNO-MP2, DLPNO-MP2 Gradient
   Christoph Reimann      : Effective Core Potentials
   Marius Retegan         : Local ZFS, SOC
   Christoph Riplinger    : Optimizer, TS searches, QM/MM, DLPNO-CCSD(T), (RO)-DLPNO pert. Triples
   Tobias Risthaus        : Range-separated hybrids, TD-DFT gradient, RPA, STAB
   Michael Roemelt        : Original ROCIS implementation
   Masaaki Saitow         : Open-shell DLPNO-CCSD energy and density
   Barbara Sandhoefer     : DKH picture change effects
   Avijit Sen             : IP-ROCIS
   Kantharuban Sivalingam : CASSCF convergence, NEVPT2, FIC-MRCI
   Bernardo de Souza      : ESD, SOC TD-DFT
   Georgi Stoychev        : AutoAux, RI-MP2 NMR, DLPNO-MP2 response
   Willem Van den Heuvel  : Paramagnetic NMR
   Boris Wezisla          : Elementary symmetry handling
   Frank Wennmohs         : Technical directorship


 We gratefully acknowledge several colleagues who have allowed us to
 interface, adapt or use parts of their codes:
   Stefan Grimme, W. Hujo, H. Kruse, P. Pracht,  : VdW corrections, initial TS optimization,
                  C. Bannwarth, S. Ehlert          DFT functionals, gCP, sTDA/sTD-DF
   Ed Valeev, F. Pavosevic, A. Kumar             : LibInt (2-el integral package), F12 methods
   Garnet Chan, S. Sharma, J. Yang, R. Olivares  : DMRG
   Ulf Ekstrom                                   : XCFun DFT Library
   Mihaly Kallay                                 : mrcc  (arbitrary order and MRCC methods)
   Jiri Pittner, Ondrej Demel                    : Mk-CCSD
   Frank Weinhold                                : gennbo (NPA and NBO analysis)
   Christopher J. Cramer and Donald G. Truhlar   : smd solvation model
   Lars Goerigk                                  : TD-DFT with DH, B97 family of functionals
   V. Asgeirsson, H. Jonsson                     : NEB implementation
   FAccTs GmbH                                   : IRC, NEB, NEB-TS, DLPNO-Multilevel, CI-OPT
                                                   MM, QMMM, 2- and 3-layer-ONIOM, Crystal-QMMM,
                                                   LR-CPCM, SF, NACMEs, symmetry and pop. for TD-DFT,
                                                   nearIR, NL-DFT gradient (VV10), updates on ESD,
                                                   ML-optimized integration grids
   S Lehtola, MJT Oliveira, MAL Marques          : LibXC Library
   Liviu Ungur et al                             : ANISO software


 Your calculation uses the libint2 library for the computation of 2-el integrals
 For citations please refer to: http://libint.valeyev.net

 Your ORCA version has been built with support for libXC version: 5.1.0
 For citations please refer to: https://tddft.org/programs/libxc/

 This ORCA versions uses:
   CBLAS   interface :  Fast vector & matrix operations
   LAPACKE interface :  Fast linear algebra routines
   SCALAPACK package :  Parallel linear algebra routines
   Shared memory     :  Shared parallel matrices
   BLAS/LAPACK       :  OpenBLAS 0.3.15  USE64BITINT DYNAMIC_ARCH NO_AFFINITY Haswell SINGLE_THREADED
        Core in use  :  Haswell
   Copyright (c) 2011-2014, The OpenBLAS Project




***************************************
The coordinates will be read from file: h20.xyz
***************************************


================================================================================

----- Orbital basis set information -----
Your calculation utilizes the basis: aug-cc-pVTZ 
    H, B-Ne : Obtained from the ccRepo (grant-hill.group.shef.ac.uk/ccrepo) Feb. 2017
              R. A. Kendall, T. H. Dunning, Jr., R. J. Harrison, J. Chem. Phys. 96, 6796 (1992)
         He : Obtained from the ccRepo (grant-hill.group.shef.ac.uk/ccrepo) Feb. 2017
              D. E. Woon, T. H. Dunning, Jr., J. Chem. Phys. 100, 2975 (1994)
  Li-Be, Na : Obtained from the ccRepo (grant-hill.group.shef.ac.uk/ccrepo) Feb. 2017
              B. P. Prascher, D. E. Woon, K. A. Peterson, T. H. Dunning, Jr., A. K. Wilson, Theor. Chem. Acc. 128, 69 (2011)
         Mg : Obtained from the Peterson Research Group Website (tyr0.chem.wsu.edu/~kipeters) Feb. 2017
              B. P. Prascher, D. E. Woon, K. A. Peterson, T. H. Dunning, Jr., A. K. Wilson, Theor. Chem. Acc. 128, 69 (2011)
      Al-Ar : Obtained from the ccRepo (grant-hill.group.shef.ac.uk/ccrepo) Feb. 2017
              D. E. Woon, T. H. Dunning, Jr., J. Chem. Phys. 98, 1358 (1993)
      Sc-Zn : Obtained from the ccRepo (grant-hill.group.shef.ac.uk/ccrepo) Feb. 2017
              N. B. Balabanov, K. A. Peterson, J. Chem. Phys. 123, 064107 (2005)
              N. B. Balabanov, K. A. Peterson, J. Chem. Phys. 125, 074110 (2006)
      Ga-Kr : Obtained from the ccRepo (grant-hill.group.shef.ac.uk/ccrepo) Feb. 2017
              A. K. Wilson, D. E. Woon, K. A. Peterson, T. H. Dunning, Jr., J. Chem. Phys. 110, 7667 (1999)
     Ag, Au : Obtained from the Peterson Research Group Website (tyr0.chem.wsu.edu/~kipeters) Feb. 2017
              K. A. Peterson, C. Puzzarini, Theor. Chem. Acc. 114, 283 (2005)

----- AuxC basis set information -----
Your calculation utilizes the auxiliary basis: aug-cc-pVTZ/C 
  H-He, B-F, Al-Ar, Ga-Kr : Obtained from the EMSL Basis Set Exchange (bse.pnl.gov) Feb. 2017
                            F. Weigend, A. Kohn, C. Hattig, J. Chem. Phys. 116, 3175 (2002)
                   Be, Mg : Obtained from the TURBOMOLE 7.0 basis set library
                            C. Haettig, Phys. Chem. Chem. Phys. 7, 59 (2005)
                       Ne : Obtained from the EMSL Basis Set Exchange (bse.pnl.gov) Feb. 2017
                            C. Haettig, Phys. Chem. Chem. Phys. 7, 59 (2005)
                            F. Weigend, A. Kohn, C. Hattig, J. Chem. Phys. 116, 3175 (2002)
                    Sc-Zn : Obtained from the EMSL Basis Set Exchange (bse.pnl.gov) Feb. 2017
                            J. G. Hill, J. A. Platts, J. Chem. Phys. 128, 044104 (2008)

================================================================================
                                        WARNINGS
                       Please study these warnings very carefully!
================================================================================


WARNING: Post HF methods need fully converged wavefunctions
  ===> : Setting SCFConvForced true
         You can overwrite this default with %scf ConvForced false 


WARNING: MDCI localization with Augmented Hessian Foster-Boys
  ===> : Switching off randomization!

INFO   : the flag for use of the SHARK integral package has been found!

================================================================================
                                       INPUT FILE
================================================================================
NAME = h20.inp
|  1> ! DLPNO-CCSD(T) aug-cc-pVTZ aug-cc-pVTZ/C TightPNO
|  2> %pal
|  3> nprocs 1
|  4> end
|  5> *xyzfile 0 1 h20.xyz
|  6> 
|  7> 
|  8>                          ****END OF INPUT****
================================================================================

                       ****************************
                       * Single Point Calculation *
                       ****************************

---------------------------------
CARTESIAN COORDINATES (ANGSTROEM)
---------------------------------
  H     -0.479891   -0.296998   -3.201928
  O      0.378888   -0.699264   -3.034960
  H      1.005977   -0.047600   -3.365574

----------------------------
CARTESIAN COORDINATES (A.U.)
----------------------------
  NO LB      ZA    FRAG     MASS         X           Y           Z
   0 H     1.0000    0     1.008   -0.906863   -0.561244   -6.050767
   1 O     8.0000    0    15.999    0.715994   -1.321417   -5.735244
   2 H     1.0000    0     1.008    1.901021   -0.089952   -6.360013

--------------------------------
INTERNAL COORDINATES (ANGSTROEM)
--------------------------------
 H      0   0   0     0.000000000000     0.00000000     0.00000000
 O      1   0   0     0.962911094846     0.00000000     0.00000000
 H      2   1   0     0.962917717947   103.80116102     0.00000000

---------------------------
INTERNAL COORDINATES (A.U.)
---------------------------
 H      0   0   0     0.000000000000     0.00000000     0.00000000
 O      1   0   0     1.819638260573     0.00000000     0.00000000
 H      2   1   0     1.819650776420   103.80116102     0.00000000

---------------------
BASIS SET INFORMATION
---------------------
There are 2 groups of distinct atoms

 Group   1 Type H   : 6s3p2d contracted to 4s3p2d pattern {3111/111/11}
 Group   2 Type O   : 19s6p3d2f contracted to 5s4p3d2f pattern {88111/3111/111/11}

Atom   0H    basis set group =>   1
Atom   1O    basis set group =>   2
Atom   2H    basis set group =>   1
---------------------------------
AUXILIARY/C BASIS SET INFORMATION
---------------------------------
There are 2 groups of distinct atoms

 Group   1 Type H   : 5s4p3d2f contracted to 5s4p3d2f pattern {11111/1111/111/11}
 Group   2 Type O   : 9s7p6d4f2g contracted to 9s7p6d4f2g pattern {111111111/1111111/111111/1111/11}

Atom   0H    basis set group =>   1
Atom   1O    basis set group =>   2
Atom   2H    basis set group =>   1
------------------------------------------------------------------------------
                           ORCA GTO INTEGRAL CALCULATION
------------------------------------------------------------------------------
------------------------------------------------------------------------------
                   ___                                                        
                  /   \      - P O W E R E D   B Y -                         
                 /     \                                                     
                 |  |  |   _    _      __       _____    __    __             
                 |  |  |  | |  | |    /  \     |  _  \  |  |  /  |          
                  \  \/   | |  | |   /    \    | | | |  |  | /  /          
                 / \  \   | |__| |  /  /\  \   | |_| |  |  |/  /          
                |  |  |   |  __  | /  /__\  \  |    /   |      \           
                |  |  |   | |  | | |   __   |  |    \   |  |\   \          
                \     /   | |  | | |  |  |  |  | |\  \  |  | \   \       
                 \___/    |_|  |_| |__|  |__|  |_| \__\ |__|  \__/        
                                                                              
                      - O R C A' S   B I G   F R I E N D -                    
                                      &                                       
                       - I N T E G R A L  F E E D E R -                       
                                                                              
 v1 FN, 2020, v2 2021                                                         
------------------------------------------------------------------------------


Reading SHARK input file h20.SHARKINP.tmp ... ok
----------------------
SHARK INTEGRAL PACKAGE
----------------------

Number of atoms                             ...      3
Number of basis functions                   ...     92
Number of shells                            ...     32
Maximum angular momentum                    ...      3
Integral batch strategy                     ... SHARK/LIBINT Hybrid
RI-J (if used) integral strategy            ... SPLIT-RIJ (Revised 2003 algorithm where possible)
Printlevel                                  ...      1
Contraction scheme used                     ... SEGMENTED contraction
Coulomb Range Separation                    ... NOT USED
Exchange Range Separation                   ... NOT USED
Finite Nucleus Model                        ... NOT USED
Auxiliary Coulomb fitting basis             ... NOT available
Auxiliary J/K fitting basis                 ... NOT available
Auxiliary Correlation fitting basis         ... AVAILABLE
   # of basis functions in Aux-C            ...    198
   # of shells in Aux-C                     ...     56
   Maximum angular momentum in Aux-C        ...      4
Auxiliary 'external' fitting basis          ... NOT available
Integral threshold                          ...     1.000000e-10
Primitive cut-off                           ...     1.000000e-11
Primitive pair pre-selection threshold      ...     1.000000e-11

Calculating pre-screening integrals         ... done (  0.1 sec) Dimension = 32
Organizing shell pair data                  ... done (  0.0 sec)
Shell pair information
Total number of shell pairs                 ...       528
Shell pairs after pre-screening             ...       528
Total number of primitive shell pairs       ...      1443
Primitive shell pairs kept                  ...      1414
          la=0 lb=0:     91 shell pairs
          la=1 lb=0:    130 shell pairs
          la=1 lb=1:     55 shell pairs
          la=2 lb=0:     91 shell pairs
          la=2 lb=1:     70 shell pairs
          la=2 lb=2:     28 shell pairs
          la=3 lb=0:     26 shell pairs
          la=3 lb=1:     20 shell pairs
          la=3 lb=2:     14 shell pairs
          la=3 lb=3:      3 shell pairs

Calculating one electron integrals          ... done (  0.0 sec)
Calculating RI/C V-Matrix + Cholesky decomp.... done (  0.0 sec)
Calculating Nuclear repulsion               ... done (  0.0 sec) ENN=      9.142099601384 Eh

SHARK setup successfully completed in   0.3 seconds

Maximum memory used throughout the entire GTOINT-calculation: 17.2 MB
-------------------------------------------------------------------------------
                                 ORCA SCF
-------------------------------------------------------------------------------

------------
SCF SETTINGS
------------
Hamiltonian:
 Ab initio Hamiltonian  Method          .... Hartree-Fock(GTOs)


General Settings:
 Integral files         IntName         .... h20
 Hartree-Fock type      HFTyp           .... RHF
 Total Charge           Charge          ....    0
 Multiplicity           Mult            ....    1
 Number of Electrons    NEL             ....   10
 Basis Dimension        Dim             ....   92
 Nuclear Repulsion      ENuc            ....      9.1420996014 Eh

Convergence Acceleration:
 DIIS                   CNVDIIS         .... on
   Start iteration      DIISMaxIt       ....    12
   Startup error        DIISStart       ....  0.200000
   # of expansion vecs  DIISMaxEq       ....     5
   Bias factor          DIISBfac        ....   1.050
   Max. coefficient     DIISMaxC        ....  10.000
 Trust-Rad. Augm. Hess. CNVTRAH         .... auto
   Auto Start mean grad. ratio tolernc. ....  1.125000
   Auto Start start iteration           ....    20
   Auto Start num. interpolation iter.  ....    10
   Max. Number of Micro iterations      ....    16
   Max. Number of Macro iterations      .... Maxiter - #DIIS iter
   Number of Davidson start vectors     ....     2
   Converg. threshold I  (grad. norm)   ....   5.000e-05
   Converg. threshold II (energy diff.) ....   1.000e-06
   Grad. Scal. Fac. for Micro threshold ....   0.100
   Minimum threshold for Micro iter.    ....   0.010
   NR start threshold (gradient norm)   ....   0.001
   Initial trust radius                 ....   0.400
   Minimum AH scaling param. (alpha)    ....   1.000
   Maximum AH scaling param. (alpha)    .... 1000.000
   Orbital update algorithm             .... Taylor
   White noise on init. David. guess    .... on
   Maximum white noise                  ....   0.010
   Quad. conv. algorithm                .... NR
 SOSCF                  CNVSOSCF        .... on
   Start iteration      SOSCFMaxIt      ....   150
   Startup grad/error   SOSCFStart      ....  0.003300
 Level Shifting         CNVShift        .... on
   Level shift para.    LevelShift      ....    0.2500
   Turn off err/grad.   ShiftErr        ....    0.0010
 Zerner damping         CNVZerner       .... off
 Static damping         CNVDamp         .... on
   Fraction old density DampFac         ....    0.7000
   Max. Damping (<1)    DampMax         ....    0.9800
   Min. Damping (>=0)   DampMin         ....    0.0000
   Turn off err/grad.   DampErr         ....    0.1000
 Fernandez-Rico         CNVRico         .... off

SCF Procedure:
 Maximum # iterations   MaxIter         ....   125
 SCF integral mode      SCFMode         .... Direct
   Integral package                     .... SHARK and LIBINT hybrid scheme
 Reset frequency        DirectResetFreq ....    20
 Integral Threshold     Thresh          ....  1.000e-10 Eh
 Primitive CutOff       TCut            ....  1.000e-11 Eh

Convergence Tolerance:
 Convergence Check Mode ConvCheckMode   .... Total+1el-Energy
 Convergence forced     ConvForced      .... 1
 Energy Change          TolE            ....  1.000e-06 Eh
 1-El. energy change                    ....  1.000e-03 Eh
 Orbital Gradient       TolG            ....  5.000e-05
 Orbital Rotation angle TolX            ....  5.000e-05
 DIIS Error             TolErr          ....  1.000e-06


Diagonalization of the overlap matrix:
Smallest eigenvalue                        ... 3.907e-04
Time for diagonalization                   ...    0.054 sec
Threshold for overlap eigenvalues          ... 1.000e-08
Number of eigenvalues below threshold      ... 0
Time for construction of square roots      ...    0.006 sec
Total time needed                          ...    0.060 sec

Time for model grid setup =    0.049 sec

------------------------------
INITIAL GUESS: MODEL POTENTIAL
------------------------------
Loading Hartree-Fock densities                     ... done
Calculating cut-offs                               ... done
Initializing the effective Hamiltonian             ... done
Setting up the integral package (SHARK)            ... done
Starting the Coulomb interaction                   ... done (   0.0 sec)
Reading the grid                                   ... done
Mapping shells                                     ... done
Starting the XC term evaluation                    ... done (   0.0 sec)
Transforming the Hamiltonian                       ... done (   0.0 sec)
Diagonalizing the Hamiltonian                      ... done (   0.0 sec)
Back transforming the eigenvectors                 ... done (   0.0 sec)
Now organizing SCF variables                       ... done
                      ------------------
                      INITIAL GUESS DONE (   0.1 sec)
                      ------------------
--------------
SCF ITERATIONS
--------------
ITER       Energy         Delta-E        Max-DP      RMS-DP      [F,P]     Damp
               ***  Starting incremental Fock matrix formation  ***
  0    -75.9588884813   0.000000000000 0.02741683  0.00100289  0.3818547 0.7000
  1    -75.9993530409  -0.040464559647 0.01791079  0.00067228  0.2241780 0.7000
                               ***Turning on DIIS***
  2    -76.0202928616  -0.020939820697 0.01151714  0.00036740  0.1200710 0.7000
  3    -76.1764721919  -0.156179330234 0.02967233  0.00066788  0.0848765 0.0000
  4    -76.0355607053   0.140911486599 0.00475812  0.00012597  0.0131340 0.0000
                      *** Initiating the SOSCF procedure ***
                           *** Shutting down DIIS ***
                      *** Re-Reading the Fockian *** 
                      *** Removing any level shift *** 
ITER      Energy       Delta-E        Grad      Rot      Max-DP    RMS-DP
  5    -76.05977454  -0.0242138339  0.001265  0.001265  0.001489  0.000052
               *** Restarting incremental Fock matrix formation ***
  6    -76.06012118  -0.0003466440  0.000521  0.000774  0.001054  0.000027
  7    -76.06012649  -0.0000053083  0.000205  0.000499  0.000853  0.000021
  8    -76.06012772  -0.0000012288  0.000092  0.000050  0.000150  0.000004
                 **** Energy Check signals convergence ****
              ***Rediagonalizing the Fockian in SOSCF/NRSCF***

               *****************************************************
               *                     SUCCESS                       *
               *           SCF CONVERGED AFTER   9 CYCLES          *
               *****************************************************


----------------
TOTAL SCF ENERGY
----------------

Total Energy       :          -76.06012777 Eh           -2069.70130 eV

Components:
Nuclear Repulsion  :            9.14209960 Eh             248.76918 eV
Electronic Energy  :          -85.20222737 Eh           -2318.47048 eV
One Electron Energy:         -122.94764633 Eh           -3345.57554 eV
Two Electron Energy:           37.74541896 Eh            1027.10507 eV

Virial components:
Potential Energy   :         -151.99775796 Eh           -4136.06927 eV
Kinetic Energy     :           75.93763019 Eh            2066.36797 eV
Virial Ratio       :            2.00161313


---------------
SCF CONVERGENCE
---------------

  Last Energy change         ...   -4.7372e-08  Tolerance :   1.0000e-06
  Last MAX-Density change    ...    2.1716e-05  Tolerance :   1.0000e-05
  Last RMS-Density change    ...    8.2937e-07  Tolerance :   1.0000e-06
  Last Orbital Gradient      ...    3.5872e-05  Tolerance :   5.0000e-05
  Last Orbital Rotation      ...    2.5235e-05  Tolerance :   5.0000e-05

             **** THE GBW FILE WAS UPDATED (h20.gbw) ****
             **** DENSITY h20.scfp WAS UPDATED ****
             **** ENERGY FILE WAS UPDATED (h20.en.tmp) ****
             **** THE GBW FILE WAS UPDATED (h20.gbw) ****
             **** DENSITY h20.scfp WAS UPDATED ****
----------------
ORBITAL ENERGIES
----------------

  NO   OCC          E(Eh)            E(eV) 
   0   2.0000     -20.568357      -559.6934 
   1   2.0000      -1.351142       -36.7664 
   2   2.0000      -0.713318       -19.4104 
   3   2.0000      -0.585210       -15.9244 
   4   2.0000      -0.510054       -13.8793 
   5   0.0000       0.029328         0.7981 
   6   0.0000       0.047707         1.2982 
   7   0.0000       0.135838         3.6963 
   8   0.0000       0.158915         4.3243 
   9   0.0000       0.175182         4.7670 
  10   0.0000       0.183165         4.9842 
  11   0.0000       0.226878         6.1737 
  12   0.0000       0.244892         6.6638 
  13   0.0000       0.265498         7.2246 
  14   0.0000       0.299612         8.1529 
  15   0.0000       0.309883         8.4324 
  16   0.0000       0.365777         9.9533 
  17   0.0000       0.437004        11.8915 
  18   0.0000       0.465726        12.6731 
  19   0.0000       0.598904        16.2970 
  20   0.0000       0.658633        17.9223 
  21   0.0000       0.707653        19.2562 
  22   0.0000       0.722924        19.6718 
  23   0.0000       0.731699        19.9105 
  24   0.0000       0.830311        22.5939 
  25   0.0000       0.846451        23.0331 
  26   0.0000       0.892640        24.2900 
  27   0.0000       0.912145        24.8207 
  28   0.0000       0.918025        24.9807 
  29   0.0000       0.922319        25.0976 
  30   0.0000       0.930890        25.3308 
  31   0.0000       0.960581        26.1387 
  32   0.0000       1.020136        27.7593 
  33   0.0000       1.042465        28.3669 
  34   0.0000       1.082143        29.4466 
  35   0.0000       1.107803        30.1449 
  36   0.0000       1.176057        32.0021 
  37   0.0000       1.181721        32.1563 
  38   0.0000       1.261651        34.3313 
  39   0.0000       1.509378        41.0723 
  40   0.0000       1.533081        41.7173 
  41   0.0000       1.580825        43.0164 
  42   0.0000       1.806564        49.1591 
  43   0.0000       1.821584        49.5678 
  44   0.0000       1.980891        53.9028 
  45   0.0000       2.116175        57.5841 
  46   0.0000       2.262658        61.5701 
  47   0.0000       2.315167        62.9989 
  48   0.0000       2.327438        63.3328 
  49   0.0000       2.418004        65.7972 
  50   0.0000       2.420566        65.8670 
  51   0.0000       2.443369        66.4874 
  52   0.0000       2.480210        67.4899 
  53   0.0000       2.677664        72.8629 
  54   0.0000       2.698130        73.4199 
  55   0.0000       2.769911        75.3731 
  56   0.0000       2.812116        76.5216 
  57   0.0000       2.883045        78.4516 
  58   0.0000       3.650452        99.3338 
  59   0.0000       3.736272       101.6691 
  60   0.0000       4.017493       109.3215 
  61   0.0000       4.080473       111.0353 
  62   0.0000       4.158599       113.1612 
  63   0.0000       4.245983       115.5391 
  64   0.0000       4.282341       116.5284 
  65   0.0000       4.371961       118.9671 
  66   0.0000       4.376125       119.0804 
  67   0.0000       4.403455       119.8241 
  68   0.0000       4.517456       122.9262 
  69   0.0000       4.723640       128.5368 
  70   0.0000       4.839471       131.6887 
  71   0.0000       5.142195       139.9262 
  72   0.0000       5.148231       140.0905 
  73   0.0000       5.242886       142.6662 
  74   0.0000       5.315473       144.6414 
  75   0.0000       5.516770       150.1189 
  76   0.0000       5.655126       153.8838 
  77   0.0000       6.177172       168.0894 
  78   0.0000       6.512023       177.2012 
  79   0.0000       6.708343       182.5433 
  80   0.0000       6.897498       187.6905 
  81   0.0000       7.128961       193.9889 
  82   0.0000       7.249765       197.2761 
  83   0.0000       7.289193       198.3490 
  84   0.0000       7.308516       198.8748 
  85   0.0000       7.330660       199.4774 
  86   0.0000       7.353040       200.0864 
  87   0.0000       7.524449       204.7507 
  88   0.0000       7.889133       214.6742 
  89   0.0000       7.918515       215.4737 
  90   0.0000       8.792841       239.2654 
  91   0.0000      15.655122       425.9975 

                    ********************************
                    * MULLIKEN POPULATION ANALYSIS *
                    ********************************

-----------------------
MULLIKEN ATOMIC CHARGES
-----------------------
   0 H :    0.223629
   1 O :   -0.447263
   2 H :    0.223635
Sum of atomic charges:   -0.0000000

--------------------------------
MULLIKEN REDUCED ORBITAL CHARGES
--------------------------------
  0 H s       :     0.659655  s :     0.659655
      pz      :     0.045925  p :     0.098415
      px      :     0.020356
      py      :     0.032135
      dz2     :     0.000858  d :     0.018300
      dxz     :     0.008121
      dyz     :     0.001047
      dx2y2   :     0.002787
      dxy     :     0.005486
  1 O s       :     3.872696  s :     3.872696
      pz      :     1.797178  p :     4.555078
      px      :     1.221798
      py      :     1.536101
      dz2     :     0.001729  d :     0.018197
      dxz     :     0.002087
      dyz     :     0.003263
      dx2y2   :     0.001669
      dxy     :     0.009449
      f0      :     0.000283  f :     0.001292
      f+1     :     0.000315
      f-1     :     0.000127
      f+2     :     0.000047
      f-2     :     0.000376
      f+3     :     0.000027
      f-3     :     0.000118
  2 H s       :     0.659652  s :     0.659652
      pz      :     0.044747  p :     0.098414
      px      :     0.025330
      py      :     0.028337
      dz2     :     0.003164  d :     0.018300
      dxz     :     0.003983
      dyz     :     0.003043
      dx2y2   :     0.006407
      dxy     :     0.001703


                     *******************************
                     * LOEWDIN POPULATION ANALYSIS *
                     *******************************

----------------------
LOEWDIN ATOMIC CHARGES
----------------------
   0 H :   -0.510668
   1 O :    1.021323
   2 H :   -0.510654

-------------------------------
LOEWDIN REDUCED ORBITAL CHARGES
-------------------------------
  0 H s       :     0.588496  s :     0.588496
      pz      :     0.166181  p :     0.554685
      px      :     0.212917
      py      :     0.175587
      dz2     :     0.037835  d :     0.367487
      dxz     :     0.099041
      dyz     :     0.022118
      dx2y2   :     0.098853
      dxy     :     0.109641
  1 O s       :     3.013038  s :     3.013038
      pz      :     1.403501  p :     3.880692
      px      :     1.147952
      py      :     1.329239
      dz2     :     0.008711  d :     0.070107
      dxz     :     0.008129
      dyz     :     0.003944
      dx2y2   :     0.012990
      dxy     :     0.036333
      f0      :     0.001345  f :     0.014841
      f+1     :     0.001562
      f-1     :     0.000508
      f+2     :     0.000564
      f-2     :     0.003635
      f+3     :     0.002361
      f-3     :     0.004866
  2 H s       :     0.588494  s :     0.588494
      pz      :     0.176473  p :     0.554676
      px      :     0.169386
      py      :     0.208817
      dz2     :     0.053600  d :     0.367484
      dxz     :     0.057206
      dyz     :     0.063921
      dx2y2   :     0.116466
      dxy     :     0.076291


                      *****************************
                      * MAYER POPULATION ANALYSIS *
                      *****************************

  NA   - Mulliken gross atomic population
  ZA   - Total nuclear charge
  QA   - Mulliken gross atomic charge
  VA   - Mayer's total valence
  BVA  - Mayer's bonded valence
  FA   - Mayer's free valence

  ATOM       NA         ZA         QA         VA         BVA        FA
  0 H      0.7764     1.0000     0.2236     1.0311     1.0311    -0.0000
  1 O      8.4473     8.0000    -0.4473     1.9924     1.9924     0.0000
  2 H      0.7764     1.0000     0.2236     1.0311     1.0311     0.0000

  Mayer bond orders larger than 0.100000
B(  0-H ,  1-O ) :   0.9962 B(  1-O ,  2-H ) :   0.9962 

-------
TIMINGS
-------

Total SCF time: 0 days 0 hours 0 min 5 sec 

Total time                  ....       5.132 sec
Sum of individual times     ....       4.835 sec  ( 94.2%)

Fock matrix formation       ....       4.665 sec  ( 90.9%)
Diagonalization             ....       0.016 sec  (  0.3%)
Density matrix formation    ....       0.000 sec  (  0.0%)
Population analysis         ....       0.008 sec  (  0.1%)
Initial guess               ....       0.066 sec  (  1.3%)
Orbital Transformation      ....       0.000 sec  (  0.0%)
Orbital Orthonormalization  ....       0.000 sec  (  0.0%)
DIIS solution               ....       0.025 sec  (  0.5%)
SOSCF solution              ....       0.006 sec  (  0.1%)

Maximum memory used throughout the entire SCF-calculation: 235.5 MB


------------------------------------------------------------------------------- 
                              ORCA-MATRIX DRIVEN CI                            
------------------------------------------------------------------------------- 


Wavefunction type
-----------------
Correlation treatment                      ...      CCSD     
Single excitations                         ... ON
Orbital optimization                       ... OFF
Calculation of Z vector                    ... OFF
Calculation of Brueckner orbitals          ... OFF
Perturbative triple excitations            ... ON
Calculation of F12 correction              ... OFF
Frozen core treatment                      ... chemical core (2 el)
Reference Wavefunction                     ... RHF
  Internal Orbitals:     1 ...    4 (  4 MO's/  8 electrons)
  Virtual  Orbitals:     5 ...   91 ( 87 MO's              )
Number of AO's                             ...     92
Number of electrons                        ...     10
Number of correlated electrons             ...      8

Algorithmic settings
--------------------
Integral transformation                    ... All integrals via the RI transformation
K(C) Formation                             ... RI-DLPNO
   PNO-Integral Storage                    ... ON DISK
   PNO occupation number cut-off           ... 1.000e-07
   Singles PNO occupation number cut-off   ... 3.000e-09
   PNO Mulliken prescreening cut-off       ... 1.000e-03
   Domain cut-off (Mulliken population)    ... 1.000e-03
   PNO Normalization                       ...    1
Maximum number of iterations               ...        50
Convergence tolerance (max. residuum)      ... 2.500e-05
Level shift for amplitude update           ... 2.000e-01
Maximum number of DIIS vectors             ...         7
DIIS turned on at iteration                ...         0
Damping before turning on DIIS             ...     0.500
Damping after turning on DIIS              ...     0.000
Pair specific amplitude update             ... OFF
Natural orbital iterations                 ... OFF
Perturbative natural orbital generation    ... OFF
Printlevel                                 ... 2

Singles Fock matrix elements calculated using PNOs.

Memory handling:
----------------
Maximum memory for working arrays          ...    512 MB
Data storage in matrix containers          ... UNCOMPRESSED
Data type for integral storage             ... DOUBLE
In-Core Storage of quantities:
   Amplitudes+Sigma Vector      ... NO
   J+K operators                ... NO
   DIIS vectors                 ... NO
   3-external integrals         ... NO
   4-external integrals         ... NO

Localization treatment:
-----------------------
Localization option                        ...    6
Localization threshhold                    ... -1.0e+00
Using relative localization threshhold     ... 1.0e-08
Neglect threshold for strong pairs         ... 1.000e-05 Eh
Prescreening threshold for very weak pairs ... 1.000e-07 Eh

Initializing the integral package          ... done
Localizing the valence orbitals
------------------------------------------------------------------------------
                           ORCA ORBITAL LOCALIZATION
------------------------------------------------------------------------------

Input orbitals are from                  ... h20.gbw
Output orbitals are to                   ... h20.loc
Max. number of iterations                ... 128
Localizations seeded randomly            ... off
Convergence tolerance                    ... 1.000e-06
Using relative localization threshhold   ... 1.000e-08
Treshold for strong local MOs            ... 9.500e-01
Treshold for bond MOs                    ... 8.500e-01
Operator                                 ... 0
Orbital range for localization           ... 1 to 4
Localization criterion                   ... FOSTER-BOYS (AUGMENTED HESSIAN)
Doing the dipole integrals     ... o.k.
Initial value of the localization sum :   142.588979
ITERATION   0 : L=  144.3942059642 DL=  1.81e+00 (AVERGE_DL)=    0.5485173020 
ITERATION   1 : L=  144.6821139052 DL=  2.88e-01 (AVERGE_DL)=    0.2190540044 
ITERATION   2 : L=  144.7473347765 DL=  6.52e-02 (AVERGE_DL)=    0.1042599886 
ITERATION   3 : L=  144.7525008097 DL=  5.17e-03 (AVERGE_DL)=    0.0293428957 
ITERATION   4 : L=  144.7531091421 DL=  6.08e-04 (AVERGE_DL)=    0.0100691974 
ITERATION   5 : L=  144.7531783407 DL=  6.92e-05 (AVERGE_DL)=    0.0033960422 
ITERATION   6 : L=  144.7531856270 DL=  7.29e-06 (AVERGE_DL)=    0.0011019944 
ITERATION   7 : L=  144.7531863520 DL=  7.25e-07 (AVERGE_DL)=    0.0003476092 
LOCALIZATION SUM CONVERGED

------------------------------------------------------
AUGMENTED HESSIAN OPTIMIZATION OF FOSTER-BOYS ORBITALS
------------------------------------------------------

Spin operator:           0
Orbital window:          1 to 4
Number of iterations:    128
Gradient tolerance:      1.000e-06
Number of pairs:         6
Davidson threshold:      2000
Diagonalization method:  LAPACK
Iter:    0   L: 144.7531863520   Grad. norm: 5.129304e-04
   *** Likely close to a maximum now. ***
       Augmented Hessian eigenvalues:  1.53e-07 -1.28e+00 -3.16e+00 -4.61e+00 ... 
Iter:    1   L: 144.7531864284   Grad. norm: 7.255399e-08
LOCALIZATION HAS CONVERGED.

Eigenvalues of the Hessian:
  0 -1.285e+00
  1 -3.164e+00
  2 -4.612e+00
  3 -5.314e+00
  4 -7.165e+00
  5 -9.516e+00


------------------------------------------------------------------------------- 
                    LOCALIZED MOLECULAR ORBITAL COMPOSITIONS                   
------------------------------------------------------------------------------- 

The Mulliken populations for each LMO on each atom are computed
The LMO`s will be ordered according to atom index and type
  (A) Strongly localized MO`s have populations of >=0.950 on one atom
  (B) Two center bond orbitals have populations of >=0.850 on two atoms
  (C) Other MO`s are considered to be `delocalized`

FOUND  -   2 strongly local MO`s
       -   2 two center bond MO`s
       -   0 significantly delocalized MO`s

Rather strongly localized orbitals:
MO   2:   1O  -   1.000741
MO   1:   1O  -   1.000741
Bond-like localized orbitals:
MO   4:   2H  -   0.385265  and   1O  -   0.611338
MO   3:   1O  -   0.611336  and   0H  -   0.385267
Localized MO's were stored in: h20.loc

Localizing the core orbitals
------------------------------------------------------------------------------
                           ORCA ORBITAL LOCALIZATION
------------------------------------------------------------------------------

Input orbitals are from                  ... h20.loc
Output orbitals are to                   ... h20.loc
Max. number of iterations                ... 128
Localizations seeded randomly            ... off
Convergence tolerance                    ... 1.000e-06
Using relative localization threshhold   ... 1.000e-08
Treshold for strong local MOs            ... 9.500e-01
Treshold for bond MOs                    ... 8.500e-01
Operator                                 ... 0
Orbital range for localization           ... 0 to 0
Localization criterion                   ... FOSTER-BOYS (AUGMENTED HESSIAN)
Doing the dipole integrals     ... o.k.

ORCA_LOC: ONLY ONE ORBITAL - SKIPPING LOCALIZATION


------------------------------------------------------------------------------- 
                    LOCALIZED MOLECULAR ORBITAL COMPOSITIONS                   
------------------------------------------------------------------------------- 

The Mulliken populations for each LMO on each atom are computed
The LMO`s will be ordered according to atom index and type
  (A) Strongly localized MO`s have populations of >=0.950 on one atom
  (B) Two center bond orbitals have populations of >=0.850 on two atoms
  (C) Other MO`s are considered to be `delocalized`

FOUND  -   1 strongly local MO`s
       -   0 two center bond MO`s
       -   0 significantly delocalized MO`s

Rather strongly localized orbitals:
MO   0:   1O  -   0.999476
Localized MO's were stored in: h20.loc

Warning: reference  - re-canonicalizations have been set to INT 1 VIRT 1
Warning: internal orbitals are localized - no re-canonicalization of internal orbitals
Warning: UsePNO is turned on - no re-canonicalization of internal and virtual orbitals

--------------------------
CLOSED-SHELL FOCK OPERATOR
--------------------------

Restoring SHARK [2] ... ok
Time needed for Fock operator              ...            1.333 sec
Reference energy                           ...    -76.060127777

--------------
DLPNO SETTINGS (2015 fully linear scaling implementation)
--------------

TCutMKN:           1.000e-03
TCutPAO:           1.000e-03
TCutPNO:           1.000e-07
TCutPNOSingles:    3.000e-09
TCutEN:            9.700e-01
TCutPAOExt:        1.000e-01
TCutPairs:         1.000e-05
TCutPre:           1.000e-07
TCutOSV:           1.000e-06
TCutDOij:          1.000e-05
TCutDO:            5.000e-03
TCutC:             1.000e-04
TCutCPAO:          1.000e-03
TCutCMO:           1.000e-03
TScaleDOMP2PreScr: 2.000e+00
TScaleMKNMP2PreScr:1.000e+01
TScalePNOMP2PreScr:1.000e+00
PAO overlap thresh 1.000e-08
Using PNOs for Singles Fock computation
Use new domains
Use fully linear algorithm
TCutTNO:           1.000e-09
TCutMP2Pairs:      1.000e-06
TCutDOStrong:      2.000e-03
TCutMKNStrong:     1.000e-02
TCutMKNWeak:       1.000e-01
TCutDOWeak:        4.000e-03
NTCutTNO:          1

--------------------------
Mulliken population of the LMOs            ... ok
Performing proximity check                 ... 
 found 4 problematic atoms
   => In all likelyhood your results will be entirely fine!
   => In case you don't want to trust it, decrease TCutMKN to below 0.00037038.
   => but note that this is probably not necessary but will increase execution time
Calculating differential overlap integrals ... ok

--------------------------
ELECTRON PAIR PRESCREENING
--------------------------

Dipole-based pair screening          .... used

   TCutDOij = 1.000000e-05
   TCutPre  = 1.000000e-07
   .... Finished loop over pairs
Total time spent in the prescreening                  ...     0.001 sec
sum of pair energies estimated for screened out pairs ...       0.000000000000 Eh
Thresholds for map construction and integral transformation for crude MP2:
   TCutMKN                    ...     1.0e-02
   TCutDO                     ...     1.0e-02
   TCutPairs                  ...     1.0e-05
   TCutPNO_CrudeMP2           ...     1.0e-07
   TCutPNOSingles_CrudeMP2    ...     3.0e-09
--------------------------------
LOCAL RI TRANSFORMATION (IAVPAO)
--------------------------------

Orbital window:       1 to 4
Number of PAOs:      92
Basis functions:     92 (32 shells)
Aux. functions:     198 (56 shells)
Use SHARK:           on

Processing maps (0.0 sec)
Average map sizes:
   Aux shells -> MOs               4.0
   Aux shells -> PAOs             92.0
   MOs        -> AO shells        32.0
   PAOs       -> AO shells        32.0

Calculating integrals (0.3 sec, 0.558 MB)
Sorting integrals (0.0 sec, 0.556 MB)
Total time for the integral transformation: 0.3 sec
--------------------------------
INITIAL GUESS AND PNO GENERATION
--------------------------------

PNO truncation parameters                   .... 
    PAOOverlapThresh   =        1.000e-08

    TCutPairs          =        1.000e-05
    TCutPNO            =        1.000e-07
    TCutPNOSingles     =        3.000e-09
    TCutMP2Pairs       =        1.000e-06
    TCutMKN            =        1.000e-02
    TCutDO             =        1.000e-02

Pair selection                          .... not used
Type of local MP2 treatment                 .... semi-local MP2
Strategy for PNO selection                  .... occupation number selection
Pair density normalization                  .... MP2 norm
Spin component scaling                      .... not used

   .... Finished loop over pairs
Making pair pair interaction lists          ... done

                       ===========================
                         10 OF   10 PAIRS ARE KEPT CCSD PAIRS
                          0 OF   10 PAIRS ARE KEPT MP2 PAIRS FOR (T)
                          0 OF   10 PAIRS ARE SKIPPED
                       ===========================

Total time spent in the initial guess                 ...     0.103 sec
SL-MP2 correlation energy (all non-screened pairs)    ...      -0.260708052412 Eh

Initial PNO correlation energy                        ...      -0.260678664267 Eh
sum of pair energies prescreened and skipped MP2 pairs...       0.000000000000 Eh
sum of pair energies of crude MP2 skipped pairs only  ...       0.000000000000 Eh
sum of MP2 pair energies for pairs that were not kept ...       0.000000000000 Eh
sum of PNO error estimates for the kept pairs         ...      -0.000029388144 Eh
                                                          --------------------
sum of all corrections                                         -0.000029388144
Initial total correlation energy                               -0.260708052412
Thresholds for map construction and integral transformation for fine MP2 and CCSD(T) calculation:
   TCutMKN   ...     1.0e-03
   TCutDO    ...     5.0e-03
   TCutPairs ...     1.0e-05
   TCutCMO   ...     1.0e-03
   TCutCPAO  ...     1.0e-03

Thresholds for map construction and integral transformation for strong Triples:
   TCutMKN   ...     1.0e-02
   TCutDO    ...     1.0e-02
   TCutCMO   ...     1.0e-03
   TCutCPAO  ...     1.0e-03

Thresholds for map construction and integral transformation for weak Triples:
   TCutMKN   ...     1.0e-01
   TCutDO    ...     2.0e-02
   TCutCMO   ...     1.0e-03
   TCutCPAO  ...     1.0e-03

--------------------------------
LOCAL RI TRANSFORMATION (IAVPAO)
--------------------------------

Orbital window:       1 to 4
Number of PAOs:      92
Basis functions:     92 (32 shells)
Aux. functions:     198 (56 shells)
Use SHARK:           on

Processing maps (0.0 sec)
Average map sizes:
   Aux shells -> MOs               4.0
   Aux shells -> PAOs             92.0
   MOs        -> AO shells        32.0
   PAOs       -> AO shells        32.0

Calculating integrals (0.2 sec, 0.558 MB)
Sorting integrals (0.0 sec, 0.556 MB)
Total time for the integral transformation: 0.2 sec
--------------------------------
INITIAL GUESS AND PNO GENERATION
--------------------------------

PNO truncation parameters                   .... 
    ScaleTCutPNO       =        1.000e-02
    PAOOverlapThresh   =        1.000e-08

    TCutPairs          =        1.000e-05
    TCutPNO            =        1.000e-07
    TCutPNOSingles     =        3.000e-09
    TCutMP2Pairs       =        1.000e-06
    TCutMKN            =        1.000e-03
    TCutDO             =        5.000e-03

Pair selection                          .... not used
Type of local MP2 treatment                 .... full local PMP2
Strategy for PNO selection                  .... occupation number selection
Pair density normalization                  .... MP2 norm
Spin component scaling                      .... not used

PASS-1: Formation of initial guess LMP2 amplitudes
Initial amplitudes guess done. Entering LMP2 iteration loop:
   Max. no of iterations          ...  50
   Energy convergence tolerance   ...    1.0e-07
   Residual convergence tolerance ...    5.0e-07
   Fock matrix cutoff             ...    1.0e-05 Eh
   DIIS convergence acceleration parameters:
        Max # vectors in DIIS     ... 7
        Start iteration of DIIS   ... 0
        Levelshift                ... 2.000e-01
        Damping factor 1          ... 5.000e-01
        Damping factor 2          ... 1.000e+00
   L-MP2 PNO cut-off              ...   1.0e-09
   L-MP2 PNO cut-off (core)       ...   1.0e-11
                           *** Turning on DIIS ***
LMP2-Iter=   0:  ELMP2= -0.265716212144  DE=   5.0e-03 RMAX=   4.9e-03
LMP2-Iter=   1:  ELMP2= -0.268392745926  DE=   2.7e-03 RMAX=   2.0e-03
LMP2-Iter=   2:  ELMP2= -0.268780214543  DE=   3.9e-04 RMAX=   3.3e-04
LMP2-Iter=   3:  ELMP2= -0.268831206287  DE=   5.1e-05 RMAX=   1.3e-04
LMP2-Iter=   4:  ELMP2= -0.268835620472  DE=   4.4e-06 RMAX=   1.5e-05
LMP2-Iter=   5:  ELMP2= -0.268835618841  DE=   1.6e-09 RMAX=   5.4e-06
LMP2-Iter=   6:  ELMP2= -0.268835600822  DE=   1.8e-08 RMAX=   5.5e-07
LMP2-Iter=   7:  ELMP2= -0.268835597448  DE=   3.4e-09 RMAX=   1.2e-07
LMP2-Iter=   8:  ELMP2= -0.268835599079  DE=   1.6e-09 RMAX=   1.5e-08 => CONVERGED
PASS-2: Formation of Pair natural orbitals
   .... Finished loop over pairs

 PNO Occupation Number Statistics: 
  | Av. % of trace(Dij) retained        ...  99.995066124748
  | sigma^2 in % of trace(Dij) retained ...   6.01e-07
  | Av. % of trace(Di) retained         ...  99.999913823321
  | sigma^2 in % of trace(Di) retained  ...   3.89e-11
 Distributions of % trace(Dij) recovered:
  |       >= 99.9  ...    10 (100.0 % of all pairs)
 Distributions of % trace(Di) recovered :
  |       >= 99.9  ...     4 (100.0 % of all I-pairs )

Making pair pair interaction lists          ... done

                       ===========================
                         10 OF   10 PAIRS ARE KEPT
                       ===========================

Total time spent in the initial guess                 ...     0.681 sec
L-MP2 correlation energy (all non-screened pairs)     ...      -0.268835599079 Eh
L-MP2 PNO error correction                            ...      -0.000000058744 Eh
                                                          --------------------
Initial total L-MP2 energy (non-screened pairs)       ...      -0.268835657823 Eh

Initial PNO correlation energy                        ...      -0.268803127972 Eh
sum of pair energies estimated for screened out pairs ...       0.000000000000 Eh
sum of MP2 pair energies for pairs that were not kept ...       0.000000000000 Eh
sum of PNO error estimates for the kept pairs         ...      -0.000032529851 Eh
                                                          --------------------
sum of all corrections                                         -0.000032529851
Initial total correlation energy                               -0.268835657823
Thresholds for map construction and integral transformation for fine MP2 and CCSD(T) calculation:
   TCutMKN   ...     1.0e-03
   TCutDO    ...     5.0e-03
   TCutPairs ...     1.0e-05
   TCutCMO   ...     1.0e-03
   TCutCPAO  ...     1.0e-03

Time for aux screen maps:            0.000
Time for maps after fine MP2:            0.000
-----------------------------
LOCAL RI TRANSFORMATION (IJV)
-----------------------------

Orbital window:       1 to 4
Basis functions:     92 (32 shells)
Aux. functions:     198 (56 shells)
Use SHARK:           on

Processing maps (0.0 sec)
Average map sizes:
   Aux shells -> MOs(i)            4.0
   Aux shells -> MOs(j)            4.0
   MOs        -> AO shells        32.0

Calculating integrals (0.2 sec, 0.026 MB)
Sorting integrals (0.0 sec, 0.024 MB)
Total time for the integral transformation: 0.2 sec
--------------------------------
LOCAL RI TRANSFORMATION (VABPAO)
--------------------------------

Number of PAOs:      92
Basis functions:     92 (32 shells)
Aux. functions:     198 (56 shells)
Use SHARK:           on

Processing maps (0.0 sec)
Average map sizes:
   Aux shells -> PAOs             92.0
   PAOs       -> AO shells        32.0

Calculating integrals (0.3 sec, 12.788 MB)
Finished


-------------------------------------
Pair Pair Term precalculation with     
RI-(ij|mn) and (im|jn) transformation  
ON THE FLY                             
-------------------------------------

   IBatch   1 (of   2)              ... done (    1.360 sec)
   IBatch   2 (of   2)              ... done (    0.142 sec)
Total EXT                           ...           1.502 sec

---------------------
RI-PNO TRANSFORMATION
---------------------

Total Number of PNOs                   ...   605
Average number of PNOs per pair        ...    60
Maximal number of PNOs per pair        ...    64
   #pairs with  1 -  5 PNOs   :    0
   #pairs with  6 - 10 PNOs   :    0
   #pairs with 11 - 15 PNOs   :    0
   #pairs with 16 - 20 PNOs   :    0
   #pairs with 21 - 25 PNOs   :    0
   #pairs with 26 - 30 PNOs   :    0
   #pairs with 31 - 35 PNOs   :    0
   #pairs with 36 - 40 PNOs   :    0
   #pairs with 41 - 45 PNOs   :    0
   #pairs with 46 - 50 PNOs   :    0
   #pairs with 51 - 55 PNOs   :    2
   #pairs with 56 - 60 PNOs   :    2
   #pairs with 61 - 65 PNOs   :    6

Generation of (ij|ab)[P] integrals            ... on
Generation of (ia|bc)[P],(ja|bc)[P] integrals ... on
Storage of 3 and 4 external integrals         ... on
Generation of ALL (ka|bc)[P] integrals        ... on
Keep RI integrals in memory                   ... off

Ibatch:  1 (of  1)
Starting 2-4 index PNO integral generation ... done

Timings:
Total PNO integral transformation time     ...          1.266 sec
Size of the 3-external file                ...        17 MB
Size of the 4-external file                ...       135 MB
Size of the IKJL file                      ...         0 MB
Size of the all 3-external file            ...        34 MB
Size of the 1-external file                ...         0 MB

Making pair/pair overlap matrices          ... done (    0.029 sec)
Size of the pair overlap file              ... 3 MB
Redoing the guess amplitudes               ... done (    0.002 sec)

-------------------------
FINAL STARTUP INFORMATION
-------------------------

E(0)                                       ...    -76.060127777
E(L-MP2)                                   ...     -0.268835658
E(L-MP2) including corrections             ...     -0.268835658
Initial E(tot)                             ...    -76.328963435
<T|T>                                      ...      0.057841871
Number of pairs included                   ... 10
Total number of pairs                      ... 10

------------------------------------------------
                  RHF COUPLED CLUSTER ITERATIONS
------------------------------------------------

Number of PNO amplitudes to be optimized   ...        36771
Number of non-PNO amplitudes               ...        75690
Untruncated number of regular amplitudes   ...        75690

Iter       E(tot)           E(Corr)          Delta-E          Residual     Time
  0    -76.320848394     -0.260688087      0.008147571      0.012310219    5.92
                           *** Turning on DIIS ***
  1    -76.326595286     -0.266434978     -0.005746891      0.006838399    5.88
  2    -76.332294893     -0.272134585     -0.005699607      0.001999016    5.94
  3    -76.333405388     -0.273245081     -0.001110496      0.001045203    5.93
  4    -76.333705073     -0.273544766     -0.000299685      0.000444810    5.95
  5    -76.333775789     -0.273615482     -0.000070716      0.000181749    5.95
  6    -76.333791378     -0.273631071     -0.000015589      0.000053599    5.95
  7    -76.333793695     -0.273633388     -0.000002317      0.000017931    5.96
               --- The Coupled-Cluster iterations have converged ---

----------------------
COUPLED CLUSTER ENERGY
----------------------

E(0)                                       ...    -76.060127777
E(CORR)(strong-pairs)                      ...     -0.273633388
E(CORR)(weak-pairs)                        ...     -0.000032530
E(CORR)(corrected)                         ...     -0.273665918
E(TOT)                                     ...    -76.333793695
Singles Norm <S|S>**1/2                    ...      0.028119531  
T1 diagnostic                              ...      0.009941756  

------------------
LARGEST AMPLITUDES
------------------
   4->  5   4->  5       0.034227
   3->  5   3->  5       0.034226
   1-> 17   1-> 17       0.026312
   2-> 17   2-> 17       0.026312
   4->  5   4-> 12       0.026136
   4-> 12   4->  5       0.026136
   3->  5   3-> 12       0.026135
   3-> 12   3->  5       0.026135
   4-> 12   4-> 12       0.024928
   3-> 12   3-> 12       0.024927
   1-> 17   1->  5       0.018986
   1->  5   1-> 17       0.018986
   2-> 17   2->  5       0.018986
   2->  5   2-> 17       0.018986
   4->  9   4->  9       0.016977
   3->  9   3->  9       0.016977


-------------------------------------------
DLPNO BASED TRIPLES CORRECTION
-------------------------------------------

Singles multiplier          ...  1.000000
TCutTNO                     ... 1.000e-09
TCutMP2Pairs                ... 1.000e-06
TCutDOStrong                ... 1.000e-02
TCutMKNStrong               ... 1.000e-02
TCutDOWeak                  ... 2.000e-02
TCutMKNWeak                 ... 1.000e-01

Fragment selection                          .... not used
Fock matrix occ-virt block is zero --> Setting DT_in_Triples to false.
Number of Triples that are to be computed   ...        16

 . . . . . . . . .
10% done  
20% done  
30% done  
40% done  
50% done  
60% done  
70% done  
80% done  
90% done               (      2.481 sec)
Triples timings:
Total time for T0               ...     2.599 sec
Total time for Iterative (T)    ...     0.000 sec
Total time of overall (T)       ...     2.599 sec

Triples List generation         ...     0.000 sec
TNO generation                  ...     0.113 sec
Pair density generation         ...     0.001 sec
Look up tables                  ...     0.000 sec
Generating 3-index integrals    ...     0.419 sec
  Make 4-ind.int. from 3-ind.int...     0.361 sec
  Projecting amplitudes (D + S) ...     0.038 sec
  Downprojecting integrals      ...     0.000 sec
  Energy contr. (sum over a,b,c)...     1.204 sec
Fitting ET(->0)                 ...     0.000 sec

Everything after 3-index        ...     2.061 sec

Timing details:
 TNO integrals                  ...     0.739 sec
   Reading 3-index integrals    ...     0.005 sec
   Sorting integrals            ...     0.197 sec
       Sorting integrals 1      ...     0.000 sec
       Sorting integrals 2      ...     0.032 sec
       Sorting integrals 3      ...     0.013 sec
       Sorting integrals 4      ...     0.000 sec
       Sorting integrals 5      ...     0.001 sec
       Sorting integrals 6      ...     0.150 sec
   Calculating local VM**-1/2   ...     0.005 sec
   Orthogonal. integrals        ...     0.018 sec
   Multipl. 3-index integrals   ...     0.515 sec
   All concerning IRIab (w/TNO) ...     0.166 sec

 Calculate W0/W1                ...     0.459 sec
 W 3-ext contribution           ...     0.308 sec
 W 3-int contribution           ...     0.039 sec
 Sorting W                      ...     0.098 sec

 V exchange contribution        ...     0.575 sec

 Timings for Triples without generation
     of 3-index integrals       ...     2.061 sec
       0 weak pairs             ...     2.061 sec
       1 weak pair              ...     0.000 sec
       2 weak pairs             ...     0.000 sec
       3 weak pairs             ...     0.000 sec
  Extra time for extrapolation  ...     0.000 sec

Number of Triples   (0, 1, 2, 3 weak pairs; overall):     16       0       0       0  (    16)
Number of Atoms     (0, 1, 2, 3 weak pairs; overall):    3.0     0.0     0.0     0.0  (     3)
Number of PAOs      (0, 1, 2, 3 weak pairs; overall):   92.0     0.0     0.0     0.0  (    92)
Number of AuxFcns   (0, 1, 2, 3 weak pairs; overall):  157.8     0.0     0.0     0.0  (   198)
Number of TNOs      (0, 1, 2, 3 weak pairs         ):   81.0     0.0     0.0     0.0
Aver. Number of NTNO, Atoms, PAOs, AuxFcns / Triples:     16    81.0     3.0    92.0   157.8

Triples Correction (T)                     ...     -0.008348940
Final correlation energy                   ...     -0.282014858
E(CCSD)                                    ...    -76.333793695
E(CCSD(T))                                 ...    -76.342142635



------------------------------------------------------------------------------- 
                                     TIMINGS                                   
------------------------------------------------------------------------------- 


Total execution time                   ...       57.996 sec

Localization of occupied MO's          ...        0.930 sec (  1.6%)
Fock Matrix Formation                  ...        1.333 sec (  2.3%)
Global overlap, Fock, MKN matrices     ...        0.344 sec (  0.6%)
Differential overlap integrals         ...        0.244 sec (  0.4%)
Organizing maps                        ...        0.016 sec (  0.0%)
RI 3-index integral generations        ...        1.011 sec (  1.7%)
RI-PNO integral transformation         ...        2.820 sec (  4.9%)
Initial Guess                          ...        0.807 sec (  1.4%)
DIIS Solver                            ...        0.308 sec (  0.5%)
State Vector Update                    ...        0.001 sec (  0.0%)
Sigma-vector construction              ...       47.384 sec ( 81.7%)
  <D|H|D>(0-ext)                       ...        0.117 sec (  0.2% of sigma)
  <D|H|D>(2-ext Fock)                  ...        0.008 sec (  0.0% of sigma)
  <D|H|D>(2-ext)                       ...        0.429 sec (  0.9% of sigma)
  <D|H|D>(4-ext)                       ...       11.990 sec ( 25.3% of sigma)
  <D|H|D>(4-ext-corr)                  ...       32.995 sec ( 69.6% of sigma)
  CCSD doubles correction              ...        0.016 sec (  0.0% of sigma)
  <S|H|S>                              ...        0.103 sec (  0.2% of sigma)
  <S|H|D>(1-ext)                       ...        0.036 sec (  0.1% of sigma)
  <D|H|S>(1-ext)                       ...        0.002 sec (  0.0% of sigma)
  <S|H|D>(3-ext)                       ...        0.215 sec (  0.5% of sigma)
  Fock-dressing                        ...        0.861 sec (  1.8% of sigma)
  Singles amplitudes                   ...        0.008 sec (  0.0% of sigma)
  (ik|jl)-dressing                     ...        0.113 sec (  0.2% of sigma)
  (ij|ab),(ia|jb)-dressing             ...        0.378 sec (  0.8% of sigma)
  Pair energies                        ...        0.002 sec (  0.0% of sigma)
Total Time for computing (T)           ...        2.600 sec (  4.5% of ALL)


Maximum memory used throughout the entire MDCI-calculation: 479.0 MB

-------------------------   --------------------
FINAL SINGLE POINT ENERGY       -76.342142634944
-------------------------   --------------------


                            ***************************************
                            *     ORCA property calculations      *
                            ***************************************


  WARNING: The energy has been calculated at the MDCI level but the densities
           used in the property calculations are still SCF densities
           MDCI response densities have not been calculated 
           use %mdci Density linearized end
           or  %mdci Density unrelaxed end
           or  %mdci Density orbopt end

                                    ---------------------
                                    Active property flags
                                    ---------------------
   (+) Dipole Moment


------------------------------------------------------------------------------
                       ORCA ELECTRIC PROPERTIES CALCULATION
------------------------------------------------------------------------------

Dipole Moment Calculation                       ... on
Quadrupole Moment Calculation                   ... off
Polarizability Calculation                      ... off
GBWName                                         ... h20.gbw
Electron density                                ... h20.scfp
The origin for moment calculation is the CENTER OF MASS  = ( 0.691496, -1.209978 -5.787856)

-------------
DIPOLE MOMENT
-------------
                                X             Y             Z
Electronic contribution:      0.03951      -0.17972       0.08485
Nuclear contribution   :     -0.19285       0.87725      -0.41417
                        -----------------------------------------
Total Dipole Moment    :     -0.15334       0.69753      -0.32932
                        -----------------------------------------
Magnitude (a.u.)       :      0.78645
Magnitude (Debye)      :      1.99900



--------------------
Rotational spectrum 
--------------------
 
Rotational constants in cm-1:    26.672445    14.562849     9.419765 
Rotational constants in MHz : 799619.780727 436583.240210 282397.461334 

 Dipole components along the rotational axes: 
x,y,z [a.u.] :     0.000011     0.786450    -0.000000 
x,y,z [Debye]:     0.000028     1.998997    -0.000001 

 

Timings for individual modules:

Sum of individual times         ...       64.586 sec (=   1.076 min)
GTO integral calculation        ...        0.417 sec (=   0.007 min)   0.6 %
SCF iterations                  ...        5.279 sec (=   0.088 min)   8.2 %
MDCI module                     ...       58.890 sec (=   0.981 min)  91.2 %
                             ****ORCA TERMINATED NORMALLY****
TOTAL RUN TIME: 0 days 0 hours 1 minutes 5 seconds 98 msec
