
                                 *****************
                                 * O   R   C   A *
                                 *****************

           --- An Ab Initio, DFT and Semiempirical electronic structure package ---

                  #######################################################
                  #                        -***-                        #
                  #          Department of theory and spectroscopy      #
                  #               Directorship: Frank Neese             #
                  #        Max Planck Institute fuer Kohlenforschung    #
                  #                Kaiser Wilhelm Platz 1               #
                  #                 D-45470 Muelheim/Ruhr               #
                  #                      Germany                        #
                  #                                                     #
                  #                  All rights reserved                #
                  #                        -***-                        #
                  #######################################################


                         Program Version 4.2.1 -  RELEASE  -


 With contributions from (in alphabetic order):
   Daniel Aravena         : Magnetic Suceptibility
   Michael Atanasov       : Ab Initio Ligand Field Theory (pilot matlab implementation)
   Alexander A. Auer      : GIAO ZORA, VPT2
   Ute Becker             : Parallelization
   Giovanni Bistoni       : ED, misc. LED, open-shell LED, HFLD
   Martin Brehm           : Molecular dynamics
   Dmytro Bykov           : SCF Hessian
   Vijay G. Chilkuri      : MRCI spin determinant printing, contributions to CSF-ICE
   Dipayan Datta          : RHF DLPNO-CCSD density
   Achintya Kumar Dutta   : EOM-CC, STEOM-CC
   Dmitry Ganyushin       : Spin-Orbit,Spin-Spin,Magnetic field MRCI
   Miquel Garcia          : C-PCM Hessian, Gaussian charge scheme
   Yang Guo               : DLPNO-NEVPT2, CIM, IAO-localization
   Andreas Hansen         : Spin unrestricted coupled pair/coupled cluster methods
   Benjamin Helmich-Paris : CASSCF linear response (MC-RPA)
   Lee Huntington         : MR-EOM, pCC
   Robert Izsak           : Overlap fitted RIJCOSX, COSX-SCS-MP3, EOM
   Christian Kollmar      : KDIIS, OOCD, Brueckner-CCSD(T), CCSD density
   Simone Kossmann        : Meta GGA functionals, TD-DFT gradient, OOMP2, MP2 Hessian
   Martin Krupicka        : AUTO-CI
   Lucas Lang             : DCDCAS
   Dagmar Lenk            : GEPOL surface, SMD
   Dimitrios Liakos       : Extrapolation schemes; Compound Job, initial MDCI parallelization
   Dimitrios Manganas     : Further ROCIS development; embedding schemes
   Dimitrios Pantazis     : SARC Basis sets
   Taras Petrenko         : DFT Hessian,TD-DFT gradient, ASA, ECA, R-Raman, ABS, FL, XAS/XES, NRVS
   Peter Pinski           : DLPNO-MP2, DLPNO-MP2 Gradient
   Christoph Reimann      : Effective Core Potentials
   Marius Retegan         : Local ZFS, SOC
   Christoph Riplinger    : Optimizer, TS searches, QM/MM, DLPNO-CCSD(T), (RO)-DLPNO pert. Triples
   Tobias Risthaus        : Range-separated hybrids, TD-DFT gradient, RPA, STAB
   Michael Roemelt        : Original ROCIS implementation
   Masaaki Saitow         : Open-shell DLPNO-CCSD energy and density
   Barbara Sandhoefer     : DKH picture change effects
   Avijit Sen             : IP-ROCIS
   Kantharuban Sivalingam : CASSCF convergence, NEVPT2, FIC-MRCI
   Bernardo de Souza      : ESD, SOC TD-DFT
   Georgi Stoychev        : AutoAux, RI-MP2 NMR
   Willem Van den Heuvel  : Paramagnetic NMR
   Boris Wezisla          : Elementary symmetry handling
   Frank Wennmohs         : Technical directorship


 We gratefully acknowledge several colleagues who have allowed us to
 interface, adapt or use parts of their codes:
   Stefan Grimme, W. Hujo, H. Kruse,             : VdW corrections, initial TS optimization,
                  C. Bannwarth                     DFT functionals, gCP, sTDA/sTD-DF
   Ed Valeev, F. Pavosevic, A. Kumar             : LibInt (2-el integral package), F12 methods
   Garnet Chan, S. Sharma, J. Yang, R. Olivares  : DMRG
   Ulf Ekstrom                                   : XCFun DFT Library
   Mihaly Kallay                                 : mrcc  (arbitrary order and MRCC methods)
   Andreas Klamt, Michael Diedenhofen            : otool_cosmo (COSMO solvation model)
   Jiri Pittner, Ondrej Demel                    : Mk-CCSD
   Frank Weinhold                                : gennbo (NPA and NBO analysis)
   Christopher J. Cramer and Donald G. Truhlar   : smd solvation model
   Lars Goerigk                                  : TD-DFT with DH, B97 family of functionals
   V. Asgeirsson, H. Jonsson                     : NEB implementation
   FAccTs GmbH                                   : IRC, NEB, NEB-TS, Multilevel, MM, QM/MM, CI optimization
   S Lehtola, MJT Oliveira, MAL Marques          : LibXC Library


 Your calculation uses the libint2 library for the computation of 2-el integrals
 For citations please refer to: http://libint.valeyev.net

 Your ORCA version has been built with support for libXC version: 4.2.3
 For citations please refer to: https://tddft.org/programs/libxc/

 This ORCA versions uses:
   CBLAS   interface :  Fast vector & matrix operations
   LAPACKE interface :  Fast linear algebra routines
   SCALAPACK package :  Parallel linear algebra routines


----- Orbital basis set information -----
Your calculation utilizes the basis: aug-cc-pVTZ 
    H, B-Ne : Obtained from the ccRepo (grant-hill.group.shef.ac.uk/ccrepo) Feb. 2017
              R. A. Kendall, T. H. Dunning, Jr., R. J. Harrison, J. Chem. Phys. 96, 6796 (1992)
         He : Obtained from the ccRepo (grant-hill.group.shef.ac.uk/ccrepo) Feb. 2017
              D. E. Woon, T. H. Dunning, Jr., J. Chem. Phys. 100, 2975 (1994)
  Li-Be, Na : Obtained from the ccRepo (grant-hill.group.shef.ac.uk/ccrepo) Feb. 2017
              B. P. Prascher, D. E. Woon, K. A. Peterson, T. H. Dunning, Jr., A. K. Wilson, Theor. Chem. Acc. 128, 69 (2011)
         Mg : Obtained from the Peterson Research Group Website (tyr0.chem.wsu.edu/~kipeters) Feb. 2017
              B. P. Prascher, D. E. Woon, K. A. Peterson, T. H. Dunning, Jr., A. K. Wilson, Theor. Chem. Acc. 128, 69 (2011)
      Al-Ar : Obtained from the ccRepo (grant-hill.group.shef.ac.uk/ccrepo) Feb. 2017
              D. E. Woon, T. H. Dunning, Jr., J. Chem. Phys. 98, 1358 (1993)
      Sc-Zn : Obtained from the ccRepo (grant-hill.group.shef.ac.uk/ccrepo) Feb. 2017
              N. B. Balabanov, K. A. Peterson, J. Chem. Phys. 123, 064107 (2005)
              N. B. Balabanov, K. A. Peterson, J. Chem. Phys. 125, 074110 (2006)
      Ga-Kr : Obtained from the ccRepo (grant-hill.group.shef.ac.uk/ccrepo) Feb. 2017
              A. K. Wilson, D. E. Woon, K. A. Peterson, T. H. Dunning, Jr., J. Chem. Phys. 110, 7667 (1999)
     Ag, Au : Obtained from the Peterson Research Group Website (tyr0.chem.wsu.edu/~kipeters) Feb. 2017
              K. A. Peterson, C. Puzzarini, Theor. Chem. Acc. 114, 283 (2005)

----- AuxC basis set information -----
Your calculation utilizes the auxiliary basis: aug-cc-pVTZ/C 
  H-He, B-F, Al-Ar, Ga-Kr : Obtained from the EMSL Basis Set Exchange (bse.pnl.gov) Feb. 2017
                            F. Weigend, A. Kohn, C. Hattig, J. Chem. Phys. 116, 3175 (2002)
                   Be, Mg : Obtained from the TURBOMOLE 7.0 basis set library
                            C. Haettig, Phys. Chem. Chem. Phys. 7, 59 (2005)
                       Ne : Obtained from the EMSL Basis Set Exchange (bse.pnl.gov) Feb. 2017
                            C. Haettig, Phys. Chem. Chem. Phys. 7, 59 (2005)
                            F. Weigend, A. Kohn, C. Hattig, J. Chem. Phys. 116, 3175 (2002)
                    Sc-Zn : Obtained from the EMSL Basis Set Exchange (bse.pnl.gov) Feb. 2017
                            J. G. Hill, J. A. Platts, J. Chem. Phys. 128, 044104 (2008)

================================================================================
                                        WARNINGS
                       Please study these warnings very carefully!
================================================================================


WARNING: MDCI localization with Augmented Hessian Foster-Boys
  ===> : Switching off randomization!

WARNING: Post HF methods need fully converged wavefunctions
  ===> : Setting SCFConvForced true
         You can overwrite this default with %scf ConvForced false 


INFO   : the flag for use of LIBINT has been found!

----- Orbital basis set information -----
Your calculation utilizes the basis: aug-cc-pVTZ 
    H, B-Ne : Obtained from the ccRepo (grant-hill.group.shef.ac.uk/ccrepo) Feb. 2017
              R. A. Kendall, T. H. Dunning, Jr., R. J. Harrison, J. Chem. Phys. 96, 6796 (1992)
         He : Obtained from the ccRepo (grant-hill.group.shef.ac.uk/ccrepo) Feb. 2017
              D. E. Woon, T. H. Dunning, Jr., J. Chem. Phys. 100, 2975 (1994)
  Li-Be, Na : Obtained from the ccRepo (grant-hill.group.shef.ac.uk/ccrepo) Feb. 2017
              B. P. Prascher, D. E. Woon, K. A. Peterson, T. H. Dunning, Jr., A. K. Wilson, Theor. Chem. Acc. 128, 69 (2011)
         Mg : Obtained from the Peterson Research Group Website (tyr0.chem.wsu.edu/~kipeters) Feb. 2017
              B. P. Prascher, D. E. Woon, K. A. Peterson, T. H. Dunning, Jr., A. K. Wilson, Theor. Chem. Acc. 128, 69 (2011)
      Al-Ar : Obtained from the ccRepo (grant-hill.group.shef.ac.uk/ccrepo) Feb. 2017
              D. E. Woon, T. H. Dunning, Jr., J. Chem. Phys. 98, 1358 (1993)
      Sc-Zn : Obtained from the ccRepo (grant-hill.group.shef.ac.uk/ccrepo) Feb. 2017
              N. B. Balabanov, K. A. Peterson, J. Chem. Phys. 123, 064107 (2005)
              N. B. Balabanov, K. A. Peterson, J. Chem. Phys. 125, 074110 (2006)
      Ga-Kr : Obtained from the ccRepo (grant-hill.group.shef.ac.uk/ccrepo) Feb. 2017
              A. K. Wilson, D. E. Woon, K. A. Peterson, T. H. Dunning, Jr., J. Chem. Phys. 110, 7667 (1999)
     Ag, Au : Obtained from the Peterson Research Group Website (tyr0.chem.wsu.edu/~kipeters) Feb. 2017
              K. A. Peterson, C. Puzzarini, Theor. Chem. Acc. 114, 283 (2005)

----- AuxC basis set information -----
Your calculation utilizes the auxiliary basis: aug-cc-pVTZ/C 
  H-He, B-F, Al-Ar, Ga-Kr : Obtained from the EMSL Basis Set Exchange (bse.pnl.gov) Feb. 2017
                            F. Weigend, A. Kohn, C. Hattig, J. Chem. Phys. 116, 3175 (2002)
                   Be, Mg : Obtained from the TURBOMOLE 7.0 basis set library
                            C. Haettig, Phys. Chem. Chem. Phys. 7, 59 (2005)
                       Ne : Obtained from the EMSL Basis Set Exchange (bse.pnl.gov) Feb. 2017
                            C. Haettig, Phys. Chem. Chem. Phys. 7, 59 (2005)
                            F. Weigend, A. Kohn, C. Hattig, J. Chem. Phys. 116, 3175 (2002)
                    Sc-Zn : Obtained from the EMSL Basis Set Exchange (bse.pnl.gov) Feb. 2017
                            J. G. Hill, J. A. Platts, J. Chem. Phys. 128, 044104 (2008)

================================================================================
                                        WARNINGS
                       Please study these warnings very carefully!
================================================================================


WARNING: MOInp is set but Guess=PModel. MOInp will be ignored!
         To read the initial guess from a file you must also specify
         'MORead' in the simple input or 'Guess MORead' in the %scf block


WARNING: MDCI localization with Augmented Hessian Foster-Boys
  ===> : Switching off randomization!

INFO   : the flag for use of LIBINT has been found!

----- Orbital basis set information -----
Your calculation utilizes the basis: aug-cc-pVTZ 
    H, B-Ne : Obtained from the ccRepo (grant-hill.group.shef.ac.uk/ccrepo) Feb. 2017
              R. A. Kendall, T. H. Dunning, Jr., R. J. Harrison, J. Chem. Phys. 96, 6796 (1992)
         He : Obtained from the ccRepo (grant-hill.group.shef.ac.uk/ccrepo) Feb. 2017
              D. E. Woon, T. H. Dunning, Jr., J. Chem. Phys. 100, 2975 (1994)
  Li-Be, Na : Obtained from the ccRepo (grant-hill.group.shef.ac.uk/ccrepo) Feb. 2017
              B. P. Prascher, D. E. Woon, K. A. Peterson, T. H. Dunning, Jr., A. K. Wilson, Theor. Chem. Acc. 128, 69 (2011)
         Mg : Obtained from the Peterson Research Group Website (tyr0.chem.wsu.edu/~kipeters) Feb. 2017
              B. P. Prascher, D. E. Woon, K. A. Peterson, T. H. Dunning, Jr., A. K. Wilson, Theor. Chem. Acc. 128, 69 (2011)
      Al-Ar : Obtained from the ccRepo (grant-hill.group.shef.ac.uk/ccrepo) Feb. 2017
              D. E. Woon, T. H. Dunning, Jr., J. Chem. Phys. 98, 1358 (1993)
      Sc-Zn : Obtained from the ccRepo (grant-hill.group.shef.ac.uk/ccrepo) Feb. 2017
              N. B. Balabanov, K. A. Peterson, J. Chem. Phys. 123, 064107 (2005)
              N. B. Balabanov, K. A. Peterson, J. Chem. Phys. 125, 074110 (2006)
      Ga-Kr : Obtained from the ccRepo (grant-hill.group.shef.ac.uk/ccrepo) Feb. 2017
              A. K. Wilson, D. E. Woon, K. A. Peterson, T. H. Dunning, Jr., J. Chem. Phys. 110, 7667 (1999)
     Ag, Au : Obtained from the Peterson Research Group Website (tyr0.chem.wsu.edu/~kipeters) Feb. 2017
              K. A. Peterson, C. Puzzarini, Theor. Chem. Acc. 114, 283 (2005)

----- AuxC basis set information -----
Your calculation utilizes the auxiliary basis: aug-cc-pVTZ/C 
  H-He, B-F, Al-Ar, Ga-Kr : Obtained from the EMSL Basis Set Exchange (bse.pnl.gov) Feb. 2017
                            F. Weigend, A. Kohn, C. Hattig, J. Chem. Phys. 116, 3175 (2002)
                   Be, Mg : Obtained from the TURBOMOLE 7.0 basis set library
                            C. Haettig, Phys. Chem. Chem. Phys. 7, 59 (2005)
                       Ne : Obtained from the EMSL Basis Set Exchange (bse.pnl.gov) Feb. 2017
                            C. Haettig, Phys. Chem. Chem. Phys. 7, 59 (2005)
                            F. Weigend, A. Kohn, C. Hattig, J. Chem. Phys. 116, 3175 (2002)
                    Sc-Zn : Obtained from the EMSL Basis Set Exchange (bse.pnl.gov) Feb. 2017
                            J. G. Hill, J. A. Platts, J. Chem. Phys. 128, 044104 (2008)

================================================================================
                                        WARNINGS
                       Please study these warnings very carefully!
================================================================================


WARNING: MOInp is set but Guess=PModel. MOInp will be ignored!
         To read the initial guess from a file you must also specify
         'MORead' in the simple input or 'Guess MORead' in the %scf block


WARNING: MDCI localization with Augmented Hessian Foster-Boys
  ===> : Switching off randomization!

INFO   : the flag for use of LIBINT has been found!

----- Orbital basis set information -----
Your calculation utilizes the basis: aug-cc-pVTZ 
    H, B-Ne : Obtained from the ccRepo (grant-hill.group.shef.ac.uk/ccrepo) Feb. 2017
              R. A. Kendall, T. H. Dunning, Jr., R. J. Harrison, J. Chem. Phys. 96, 6796 (1992)
         He : Obtained from the ccRepo (grant-hill.group.shef.ac.uk/ccrepo) Feb. 2017
              D. E. Woon, T. H. Dunning, Jr., J. Chem. Phys. 100, 2975 (1994)
  Li-Be, Na : Obtained from the ccRepo (grant-hill.group.shef.ac.uk/ccrepo) Feb. 2017
              B. P. Prascher, D. E. Woon, K. A. Peterson, T. H. Dunning, Jr., A. K. Wilson, Theor. Chem. Acc. 128, 69 (2011)
         Mg : Obtained from the Peterson Research Group Website (tyr0.chem.wsu.edu/~kipeters) Feb. 2017
              B. P. Prascher, D. E. Woon, K. A. Peterson, T. H. Dunning, Jr., A. K. Wilson, Theor. Chem. Acc. 128, 69 (2011)
      Al-Ar : Obtained from the ccRepo (grant-hill.group.shef.ac.uk/ccrepo) Feb. 2017
              D. E. Woon, T. H. Dunning, Jr., J. Chem. Phys. 98, 1358 (1993)
      Sc-Zn : Obtained from the ccRepo (grant-hill.group.shef.ac.uk/ccrepo) Feb. 2017
              N. B. Balabanov, K. A. Peterson, J. Chem. Phys. 123, 064107 (2005)
              N. B. Balabanov, K. A. Peterson, J. Chem. Phys. 125, 074110 (2006)
      Ga-Kr : Obtained from the ccRepo (grant-hill.group.shef.ac.uk/ccrepo) Feb. 2017
              A. K. Wilson, D. E. Woon, K. A. Peterson, T. H. Dunning, Jr., J. Chem. Phys. 110, 7667 (1999)
     Ag, Au : Obtained from the Peterson Research Group Website (tyr0.chem.wsu.edu/~kipeters) Feb. 2017
              K. A. Peterson, C. Puzzarini, Theor. Chem. Acc. 114, 283 (2005)

----- AuxC basis set information -----
Your calculation utilizes the auxiliary basis: aug-cc-pVTZ/C 
  H-He, B-F, Al-Ar, Ga-Kr : Obtained from the EMSL Basis Set Exchange (bse.pnl.gov) Feb. 2017
                            F. Weigend, A. Kohn, C. Hattig, J. Chem. Phys. 116, 3175 (2002)
                   Be, Mg : Obtained from the TURBOMOLE 7.0 basis set library
                            C. Haettig, Phys. Chem. Chem. Phys. 7, 59 (2005)
                       Ne : Obtained from the EMSL Basis Set Exchange (bse.pnl.gov) Feb. 2017
                            C. Haettig, Phys. Chem. Chem. Phys. 7, 59 (2005)
                            F. Weigend, A. Kohn, C. Hattig, J. Chem. Phys. 116, 3175 (2002)
                    Sc-Zn : Obtained from the EMSL Basis Set Exchange (bse.pnl.gov) Feb. 2017
                            J. G. Hill, J. A. Platts, J. Chem. Phys. 128, 044104 (2008)

================================================================================
                                        WARNINGS
                       Please study these warnings very carefully!
================================================================================


WARNING: MOInp is set but Guess=PModel. MOInp will be ignored!
         To read the initial guess from a file you must also specify
         'MORead' in the simple input or 'Guess MORead' in the %scf block


WARNING: MDCI localization with Augmented Hessian Foster-Boys
  ===> : Switching off randomization!

INFO   : the flag for use of LIBINT has been found!

----- Orbital basis set information -----
Your calculation utilizes the basis: aug-cc-pVTZ 
    H, B-Ne : Obtained from the ccRepo (grant-hill.group.shef.ac.uk/ccrepo) Feb. 2017
              R. A. Kendall, T. H. Dunning, Jr., R. J. Harrison, J. Chem. Phys. 96, 6796 (1992)
         He : Obtained from the ccRepo (grant-hill.group.shef.ac.uk/ccrepo) Feb. 2017
              D. E. Woon, T. H. Dunning, Jr., J. Chem. Phys. 100, 2975 (1994)
  Li-Be, Na : Obtained from the ccRepo (grant-hill.group.shef.ac.uk/ccrepo) Feb. 2017
              B. P. Prascher, D. E. Woon, K. A. Peterson, T. H. Dunning, Jr., A. K. Wilson, Theor. Chem. Acc. 128, 69 (2011)
         Mg : Obtained from the Peterson Research Group Website (tyr0.chem.wsu.edu/~kipeters) Feb. 2017
              B. P. Prascher, D. E. Woon, K. A. Peterson, T. H. Dunning, Jr., A. K. Wilson, Theor. Chem. Acc. 128, 69 (2011)
      Al-Ar : Obtained from the ccRepo (grant-hill.group.shef.ac.uk/ccrepo) Feb. 2017
              D. E. Woon, T. H. Dunning, Jr., J. Chem. Phys. 98, 1358 (1993)
      Sc-Zn : Obtained from the ccRepo (grant-hill.group.shef.ac.uk/ccrepo) Feb. 2017
              N. B. Balabanov, K. A. Peterson, J. Chem. Phys. 123, 064107 (2005)
              N. B. Balabanov, K. A. Peterson, J. Chem. Phys. 125, 074110 (2006)
      Ga-Kr : Obtained from the ccRepo (grant-hill.group.shef.ac.uk/ccrepo) Feb. 2017
              A. K. Wilson, D. E. Woon, K. A. Peterson, T. H. Dunning, Jr., J. Chem. Phys. 110, 7667 (1999)
     Ag, Au : Obtained from the Peterson Research Group Website (tyr0.chem.wsu.edu/~kipeters) Feb. 2017
              K. A. Peterson, C. Puzzarini, Theor. Chem. Acc. 114, 283 (2005)

----- AuxC basis set information -----
Your calculation utilizes the auxiliary basis: aug-cc-pVTZ/C 
  H-He, B-F, Al-Ar, Ga-Kr : Obtained from the EMSL Basis Set Exchange (bse.pnl.gov) Feb. 2017
                            F. Weigend, A. Kohn, C. Hattig, J. Chem. Phys. 116, 3175 (2002)
                   Be, Mg : Obtained from the TURBOMOLE 7.0 basis set library
                            C. Haettig, Phys. Chem. Chem. Phys. 7, 59 (2005)
                       Ne : Obtained from the EMSL Basis Set Exchange (bse.pnl.gov) Feb. 2017
                            C. Haettig, Phys. Chem. Chem. Phys. 7, 59 (2005)
                            F. Weigend, A. Kohn, C. Hattig, J. Chem. Phys. 116, 3175 (2002)
                    Sc-Zn : Obtained from the EMSL Basis Set Exchange (bse.pnl.gov) Feb. 2017
                            J. G. Hill, J. A. Platts, J. Chem. Phys. 128, 044104 (2008)

================================================================================
                                        WARNINGS
                       Please study these warnings very carefully!
================================================================================


WARNING: MOInp is set but Guess=PModel. MOInp will be ignored!
         To read the initial guess from a file you must also specify
         'MORead' in the simple input or 'Guess MORead' in the %scf block


WARNING: MDCI localization with Augmented Hessian Foster-Boys
  ===> : Switching off randomization!

INFO   : the flag for use of LIBINT has been found!

================================================================================
                                       INPUT FILE
================================================================================
NAME = DLPNO_CP33.inp
|  1> #------------------------------------------------------
|  2> # After the Orca calculation you will get two inter-
|  3> # action energies at the end of the output file. The
|  4> # difference is the negative BSSE.
|  5> #
|  6> # The script will set the orbital guess PModel for 
|  7> # jobs 2-5 since Orca will try to use the .gbw-files of
|  8> # the earlier calculations which does not work for jobs
|  9> # 2 and 3 and does not help for jobs 4 and 5.
| 10> #------------------------------------------------------
| 11> #
| 12> #-------------------------
| 13> #     First the dimer
| 14> #-------------------------
| 15> 
| 16> %id "dimer"
| 17> ! DLPNO-CCSD(T) aug-cc-pVTZ aug-cc-pVTZ/C TightPNO
| 18> %maxcore 2000
| 19> %pal
| 20> nprocs 10
| 21> end
| 22> 
| 23> * xyz 0 1
| 24> H     0.437015    -0.722975     2.539106 
| 25> O     0.377617    -1.637563     2.925810 
| 26> H     0.491487    -2.200896     2.146277 
| 27> H    -2.568331     1.404478     1.047663 
| 28> O    -2.243112     1.591905     1.977414 
| 29> H    -2.882144     1.092647     2.547296 
| 30> H     0.888972    -2.942300    -0.135098 
| 31> O     0.566540    -2.028337    -0.025227 
| 32> H     1.362688    -1.456482     0.023356 
| 33> H     3.046174    -0.412495     1.112743 
| 34> O     2.802624    -0.569245     0.170116 
| 35> H     3.115100     0.216165    -0.318506 
| 36> H     0.585129     2.932421    -0.425146 
| 37> O     1.362882     2.497691     0.018692 
| 38> H     2.117704     2.509816    -0.585837 
| 39> H    -2.375761    -1.888358     0.902444 
| 40> O    -2.092676    -1.979067    -0.035191 
| 41> H    -1.136774    -1.759069    -0.021966 
| 42> H    -3.763782     0.567298    -0.376081 
| 43> O    -2.983584     1.143968    -0.499572 
| 44> H    -2.294391     0.596501    -0.947225 
| 45> H    -4.933043    -1.824498    -1.342388 
| 46> O    -4.241056    -2.436260    -1.630701 
| 47> H    -3.456349    -2.140037    -1.112083 
| 48> H    -0.693962     1.006349     1.898660 
| 49> O     0.276203     0.796438     1.951149 
| 50> H     0.666954     1.101832     1.115747 
| 51> H     4.655223     1.562723    -0.377292 
| 52> O     3.932173     1.683737    -1.052217 
| 53> H     4.375456     1.507559    -1.889338 
| 54> H    -1.230396     3.978320    -0.085943 
| 55> O    -0.909168     3.548281    -0.912929 
| 56> H    -1.612983     2.908654    -1.099541 
| 57> H     3.382491    -2.093172    -0.581791 
| 58> O     3.476101    -3.031671    -0.849025 
| 59> H     4.434746    -3.147502    -0.925112 
| 60> N    -0.617699     0.272235    -1.886545 
| 61> H    -0.239695    -0.659212    -1.730569 
| 62> H     0.100465     0.929547    -1.593199 
| 63> H    -0.744452     0.388033    -2.886901 
| 64> *
| 65> 
| 66> #--------------------------
| 67> #   Now the fragments at
| 68> #      dimer-geometry 
| 69> #-------------------------
| 70> 
| 71> $new_job
| 72> %id "fragment"
| 73> %scf guess PModel end
| 74> ! DLPNO-CCSD(T) aug-cc-pVTZ aug-cc-pVTZ/C TightPNO
| 75> %maxcore 2000
| 76> %pal
| 77> nprocs 10
| 78> end
| 79> 
| 80> * xyz 0 1
| 81> H     0.437015    -0.722975     2.539106 
| 82> O     0.377617    -1.637563     2.925810 
| 83> H     0.491487    -2.200896     2.146277 
| 84> H    -2.568331     1.404478     1.047663 
| 85> O    -2.243112     1.591905     1.977414 
| 86> H    -2.882144     1.092647     2.547296 
| 87> H     0.888972    -2.942300    -0.135098 
| 88> O     0.566540    -2.028337    -0.025227 
| 89> H     1.362688    -1.456482     0.023356 
| 90> H     3.046174    -0.412495     1.112743 
| 91> O     2.802624    -0.569245     0.170116 
| 92> H     3.115100     0.216165    -0.318506 
| 93> H     0.585129     2.932421    -0.425146 
| 94> O     1.362882     2.497691     0.018692 
| 95> H     2.117704     2.509816    -0.585837 
| 96> H    -2.375761    -1.888358     0.902444 
| 97> O    -2.092676    -1.979067    -0.035191 
| 98> H    -1.136774    -1.759069    -0.021966 
| 99> H    -3.763782     0.567298    -0.376081 
|100> O    -2.983584     1.143968    -0.499572 
|101> H    -2.294391     0.596501    -0.947225 
|102> H    -4.933043    -1.824498    -1.342388 
|103> O    -4.241056    -2.436260    -1.630701 
|104> H    -3.456349    -2.140037    -1.112083 
|105> H    -0.693962     1.006349     1.898660 
|106> O     0.276203     0.796438     1.951149 
|107> H     0.666954     1.101832     1.115747 
|108> H     4.655223     1.562723    -0.377292 
|109> O     3.932173     1.683737    -1.052217 
|110> H     4.375456     1.507559    -1.889338 
|111> H    -1.230396     3.978320    -0.085943 
|112> O    -0.909168     3.548281    -0.912929 
|113> H    -1.612983     2.908654    -1.099541 
|114> H     3.382491    -2.093172    -0.581791 
|115> O     3.476101    -3.031671    -0.849025 
|116> H     4.434746    -3.147502    -0.925112 
|117> *
|118> 
|119> $new_job
|120> %id "fragment"
|121> %scf guess PModel end
|122> ! DLPNO-CCSD(T) aug-cc-pVTZ aug-cc-pVTZ/C TightPNO
|123> %maxcore 2000
|124> %pal
|125> nprocs 10
|126> end
|127> 
|128> * xyz 0 1
|129> N    -0.617699     0.272235    -1.886545 
|130> H    -0.239695    -0.659212    -1.730569 
|131> H     0.100465     0.929547    -1.593199 
|132> H    -0.744452     0.388033    -2.886901 
|133> *
|134> 
|135> #--------------------------
|136> #   Now the fragments at
|137> #   dimer-geometry with  
|138> #     the dimer-basis
|139> #-------------------------
|140> 
|141> $new_job
|142> %id "ghost"
|143> %scf guess PModel end
|144> ! DLPNO-CCSD(T) aug-cc-pVTZ aug-cc-pVTZ/C TightPNO
|145> %maxcore 2000
|146> %pal
|147> nprocs 10
|148> end
|149> 
|150> * xyz 0 1
|151> H          0.437015    -0.722975     2.539106 
|152> O          0.377617    -1.637563     2.925810 
|153> H          0.491487    -2.200896     2.146277 
|154> H         -2.568331     1.404478     1.047663 
|155> O         -2.243112     1.591905     1.977414 
|156> H         -2.882144     1.092647     2.547296 
|157> H          0.888972    -2.942300    -0.135098 
|158> O          0.566540    -2.028337    -0.025227 
|159> H          1.362688    -1.456482     0.023356 
|160> H          3.046174    -0.412495     1.112743 
|161> O          2.802624    -0.569245     0.170116 
|162> H          3.115100     0.216165    -0.318506 
|163> H          0.585129     2.932421    -0.425146 
|164> O          1.362882     2.497691     0.018692 
|165> H          2.117704     2.509816    -0.585837 
|166> H         -2.375761    -1.888358     0.902444 
|167> O         -2.092676    -1.979067    -0.035191 
|168> H         -1.136774    -1.759069    -0.021966 
|169> H         -3.763782     0.567298    -0.376081 
|170> O         -2.983584     1.143968    -0.499572 
|171> H         -2.294391     0.596501    -0.947225 
|172> H         -4.933043    -1.824498    -1.342388 
|173> O         -4.241056    -2.436260    -1.630701 
|174> H         -3.456349    -2.140037    -1.112083 
|175> H         -0.693962     1.006349     1.898660 
|176> O          0.276203     0.796438     1.951149 
|177> H          0.666954     1.101832     1.115747 
|178> H          4.655223     1.562723    -0.377292 
|179> O          3.932173     1.683737    -1.052217 
|180> H          4.375456     1.507559    -1.889338 
|181> H         -1.230396     3.978320    -0.085943 
|182> O         -0.909168     3.548281    -0.912929 
|183> H         -1.612983     2.908654    -1.099541 
|184> H          3.382491    -2.093172    -0.581791 
|185> O          3.476101    -3.031671    -0.849025 
|186> H          4.434746    -3.147502    -0.925112 
|187> N :       -0.617699     0.272235    -1.886545 
|188> H :       -0.239695    -0.659212    -1.730569 
|189> H :        0.100465     0.929547    -1.593199 
|190> H :       -0.744452     0.388033    -2.886901 
|191> *
|192> 
|193> $new_job
|194> %id "ghost"
|195> %scf guess PModel end
|196> ! DLPNO-CCSD(T) aug-cc-pVTZ aug-cc-pVTZ/C TightPNO
|197> %maxcore 2000
|198> %pal
|199> nprocs 10
|200> end
|201> 
|202> * xyz 0 1
|203> H :        0.437015    -0.722975     2.539106 
|204> O :        0.377617    -1.637563     2.925810 
|205> H :        0.491487    -2.200896     2.146277 
|206> H :       -2.568331     1.404478     1.047663 
|207> O :       -2.243112     1.591905     1.977414 
|208> H :       -2.882144     1.092647     2.547296 
|209> H :        0.888972    -2.942300    -0.135098 
|210> O :        0.566540    -2.028337    -0.025227 
|211> H :        1.362688    -1.456482     0.023356 
|212> H :        3.046174    -0.412495     1.112743 
|213> O :        2.802624    -0.569245     0.170116 
|214> H :        3.115100     0.216165    -0.318506 
|215> H :        0.585129     2.932421    -0.425146 
|216> O :        1.362882     2.497691     0.018692 
|217> H :        2.117704     2.509816    -0.585837 
|218> H :       -2.375761    -1.888358     0.902444 
|219> O :       -2.092676    -1.979067    -0.035191 
|220> H :       -1.136774    -1.759069    -0.021966 
|221> H :       -3.763782     0.567298    -0.376081 
|222> O :       -2.983584     1.143968    -0.499572 
|223> H :       -2.294391     0.596501    -0.947225 
|224> H :       -4.933043    -1.824498    -1.342388 
|225> O :       -4.241056    -2.436260    -1.630701 
|226> H :       -3.456349    -2.140037    -1.112083 
|227> H :       -0.693962     1.006349     1.898660 
|228> O :        0.276203     0.796438     1.951149 
|229> H :        0.666954     1.101832     1.115747 
|230> H :        4.655223     1.562723    -0.377292 
|231> O :        3.932173     1.683737    -1.052217 
|232> H :        4.375456     1.507559    -1.889338 
|233> H :       -1.230396     3.978320    -0.085943 
|234> O :       -0.909168     3.548281    -0.912929 
|235> H :       -1.612983     2.908654    -1.099541 
|236> H :        3.382491    -2.093172    -0.581791 
|237> O :        3.476101    -3.031671    -0.849025 
|238> H :        4.434746    -3.147502    -0.925112 
|239> N         -0.617699     0.272235    -1.886545 
|240> H         -0.239695    -0.659212    -1.730569 
|241> H          0.100465     0.929547    -1.593199 
|242> H         -0.744452     0.388033    -2.886901 
|243> *
|244> 
|245> 
|246>                          ****END OF INPUT****
================================================================================


                 $$$$$$$$$$$$$$$$$$$$$$$$$$$$$$$$$$$$$$$$$$$$$$ 
                 $ THERE ARE  5 JOBS TO BE PROCESSED THIS RUN $
                 $$$$$$$$$$$$$$$$$$$$$$$$$$$$$$$$$$$$$$$$$$$$$$ 




                 $$$$$$$$$$$$$$$$  JOB NUMBER  1 $$$$$$$$$$$$$$


                       ****************************
                       * Single Point Calculation *
                       ****************************

---------------------------------
CARTESIAN COORDINATES (ANGSTROEM)
---------------------------------
  H      0.437015   -0.722975    2.539106
  O      0.377617   -1.637563    2.925810
  H      0.491487   -2.200896    2.146277
  H     -2.568331    1.404478    1.047663
  O     -2.243112    1.591905    1.977414
  H     -2.882144    1.092647    2.547296
  H      0.888972   -2.942300   -0.135098
  O      0.566540   -2.028337   -0.025227
  H      1.362688   -1.456482    0.023356
  H      3.046174   -0.412495    1.112743
  O      2.802624   -0.569245    0.170116
  H      3.115100    0.216165   -0.318506
  H      0.585129    2.932421   -0.425146
  O      1.362882    2.497691    0.018692
  H      2.117704    2.509816   -0.585837
  H     -2.375761   -1.888358    0.902444
  O     -2.092676   -1.979067   -0.035191
  H     -1.136774   -1.759069   -0.021966
  H     -3.763782    0.567298   -0.376081
  O     -2.983584    1.143968   -0.499572
  H     -2.294391    0.596501   -0.947225
  H     -4.933043   -1.824498   -1.342388
  O     -4.241056   -2.436260   -1.630701
  H     -3.456349   -2.140037   -1.112083
  H     -0.693962    1.006349    1.898660
  O      0.276203    0.796438    1.951149
  H      0.666954    1.101832    1.115747
  H      4.655223    1.562723   -0.377292
  O      3.932173    1.683737   -1.052217
  H      4.375456    1.507559   -1.889338
  H     -1.230396    3.978320   -0.085943
  O     -0.909168    3.548281   -0.912929
  H     -1.612983    2.908654   -1.099541
  H      3.382491   -2.093172   -0.581791
  O      3.476101   -3.031671   -0.849025
  H      4.434746   -3.147502   -0.925112
  N     -0.617699    0.272235   -1.886545
  H     -0.239695   -0.659212   -1.730569
  H      0.100465    0.929547   -1.593199
  H     -0.744452    0.388033   -2.886901

----------------------------
CARTESIAN COORDINATES (A.U.)
----------------------------
  NO LB      ZA    FRAG     MASS         X           Y           Z
   0 H     1.0000    0     1.008    0.825839   -1.366225    4.798215
   1 O     8.0000    0    15.999    0.713593   -3.094546    5.528980
   2 H     1.0000    0     1.008    0.928776   -4.159091    4.055876
   3 H     1.0000    0     1.008   -4.853442    2.654079    1.979796
   4 O     8.0000    0    15.999   -4.238867    3.008264    3.736771
   5 H     1.0000    0     1.008   -5.446463    2.064804    4.813692
   6 H     1.0000    0     1.008    1.679914   -5.560141   -0.255298
   7 O     8.0000    0    15.999    1.070605   -3.833001   -0.047672
   8 H     1.0000    0     1.008    2.575107   -2.752352    0.044136
   9 H     1.0000    0     1.008    5.756435   -0.779503    2.102780
  10 O     8.0000    0    15.999    5.296192   -1.075717    0.321473
  11 H     1.0000    0     1.008    5.886686    0.408493   -0.601889
  12 H     1.0000    0     1.008    1.105734    5.541473   -0.803410
  13 O     8.0000    0    15.999    2.575474    4.719952    0.035323
  14 H     1.0000    0     1.008    4.001881    4.742865   -1.107071
  15 H     1.0000    0     1.008   -4.489538   -3.568479    1.705372
  16 O     8.0000    0    15.999   -3.954585   -3.739895   -0.066501
  17 H     1.0000    0     1.008   -2.148192   -3.324159   -0.041510
  18 H     1.0000    0     1.008   -7.112517    1.072038   -0.710690
  19 O     8.0000    0    15.999   -5.638157    2.161786   -0.944054
  20 H     1.0000    0     1.008   -4.335771    1.127224   -1.789996
  21 H     1.0000    0     1.008   -9.322100   -3.447802   -2.536746
  22 O     8.0000    0    15.999   -8.014434   -4.603864   -3.081578
  23 H     1.0000    0     1.008   -6.531553   -4.044084   -2.101532
  24 H     1.0000    0     1.008   -1.311398    1.901724    3.587947
  25 O     8.0000    0    15.999    0.521948    1.505050    3.687137
  26 H     1.0000    0     1.008    1.260360    2.082161    2.108456
  27 H     1.0000    0     1.008    8.797097    2.953118   -0.712979
  28 O     8.0000    0    15.999    7.430730    3.181802   -1.988402
  29 H     1.0000    0     1.008    8.268414    2.848874   -3.570331
  30 H     1.0000    0     1.008   -2.325111    7.517935   -0.162409
  31 O     8.0000    0    15.999   -1.718079    6.705279   -1.725186
  32 H     1.0000    0     1.008   -3.048096    5.496559   -2.077831
  33 H     1.0000    0     1.008    6.391982   -3.955522   -1.099426
  34 O     8.0000    0    15.999    6.568879   -5.729028   -1.604425
  35 H     1.0000    0     1.008    8.380455   -5.947917   -1.748208
  36 N     7.0000    0    14.007   -1.167282    0.514450   -3.565053
  37 H     1.0000    0     1.008   -0.452958   -1.245730   -3.270301
  38 H     1.0000    0     1.008    0.189851    1.756589   -3.010710
  39 H     1.0000    0     1.008   -1.406810    0.733276   -5.455452

--------------------------------
INTERNAL COORDINATES (ANGSTROEM)
--------------------------------
 H      0   0   0     0.000000000000     0.00000000     0.00000000
 O      1   0   0     0.994755907630     0.00000000     0.00000000
 H      2   1   0     0.968494782577   102.40767204     0.00000000
 H      1   2   3     3.972727409372   126.37928534    87.87287765
 O      4   1   2     1.002663054217    60.43635452   100.14937614
 H      5   4   1     0.991153843514   103.28973262   262.15417187
 H      3   2   1     2.431531638097   162.13105116     4.71709543
 O      7   3   2     0.975378078816    63.54847311   335.81952649
 H      8   7   3     0.981442859681   106.46298541    92.31865354
 H      9   8   7     2.260707412323   153.76739700   271.80812343
 O     10   9   8     0.986120087073    44.11463011   170.78954584
 H     11  10   9     0.976351154841   105.75179417   147.26529803
 H     12  11  10     3.713512085341   112.62721298   271.61257266
 O     13  12  11     0.995430596352    30.16818691    91.01575823
 H     14  13  12     0.967139379381   109.00314820    61.99763831
 H      8   7   3     3.088252382705   113.03277918   289.65385269
 O     16   8   7     0.983628300290    55.61738426   275.13503047
 H     17  16   8     0.980980455582   104.29455708   345.63689048
 H      4   1   2     2.038877245774   119.06637786   307.58544843
 O     19   4   1     0.978011878857    51.56156029   264.82942837
 H     20  19   4     0.987471678453   106.68509199   114.69597633
 H     19   4   1     2.832244447428   145.79776429    32.65888229
 O     22  19   4     0.967586243589   109.89789585   296.17160083
 H     23  22  19     0.986142875806   102.85345443    24.02449536
 H      5   4   1     1.657993891470   101.12782216    23.46037252
 O     25   5   4     0.994000930717   169.74340879   141.19788497
 H     26  25   5     0.971518574625   106.30623309   260.11280507
 H     12  11  10     2.046619919841   141.67317973    37.11524372
 O     28  12  11     0.996478522760    63.46936009   179.93647706
 H     29  28  12     0.963488492103   103.44036827   245.94575071
 H     13  12  11     2.122520769989   159.81630662     0.75207586
 O     31  13  12     0.985914201998    51.12107820   254.40756192
 H     32  31  13     0.969176089211   102.28461065   121.61451107
 H     11  10   9     1.795539856329   117.09348676   272.42839826
 O     34  11  10     0.980284252580   163.24563007    79.46358601
 H     35  34  11     0.968610493519   103.32131291   213.69576463
 N     21  20  19     1.949042473632   155.66167968   168.92912633
 H     37  21  20     1.017255646532   113.46004604   152.30877368
 H     37  21  20     1.016794213180   111.16253118    32.21439733
 H     37  21  20     1.014981589266   110.40059822   273.14832680

---------------------------
INTERNAL COORDINATES (A.U.)
---------------------------
 H      0   0   0     0.000000000000     0.00000000     0.00000000
 O      1   0   0     1.879816235520     0.00000000     0.00000000
 H      2   1   0     1.830189901201   102.40767204     0.00000000
 H      1   2   3     7.507366808435   126.37928534    87.87287765
 O      4   1   2     1.894758577070    60.43635452   100.14937614
 H      5   4   1     1.873009320824   103.28973262   262.15417187
 H      3   2   1     4.594928881968   162.13105116     4.71709543
 O      7   3   2     1.843197445992    63.54847311   335.81952649
 H      8   7   3     1.854658220889   106.46298541    92.31865354
 H      9   8   7     4.272117878217   153.76739700   271.80812343
 O     10   9   8     1.863496899727    44.11463011   170.78954584
 H     11  10   9     1.845036293188   105.75179417   147.26529803
 H     12  11  10     7.017520836302   112.62721298   271.61257266
 O     13  12  11     1.881091212431    30.16818691    91.01575823
 H     14  13  12     1.827628560361   109.00314820    61.99763831
 H      8   7   3     5.835951235742   113.03277918   289.65385269
 O     16   8   7     1.858788105122    55.61738426   275.13503047
 H     17  16   8     1.853784403778   104.29455708   345.63689048
 H      4   1   2     3.852919615197   119.06637786   307.58544843
 O     19   4   1     1.848174606761    51.56156029   264.82942837
 H     20  19   4     1.866051037280   106.68509199   114.69597633
 H     19   4   1     5.352166349958   145.79776429    32.65888229
 O     22  19   4     1.828473011332   109.89789585   296.17160083
 H     23  22  19     1.863539964190   102.85345443    24.02449536
 H      5   4   1     3.133154386593   101.12782216    23.46037252
 O     25   5   4     1.878389535919   169.74340879   141.19788497
 H     26  25   5     1.835904040058   106.30623309   260.11280507
 H     12  11  10     3.867551148727   141.67317973    37.11524372
 O     28  12  11     1.883071506350    63.46936009   179.93647706
 H     29  28  12     1.820729383259   103.44036827   245.94575071
 H     13  12  11     4.010982968839   159.81630662     0.75207586
 O     31  13  12     1.863107833319    51.12107820   254.40756192
 H     32  31  13     1.831477384153   102.28461065   121.61451107
 H     11  10   9     3.393078591003   117.09348676   272.42839826
 O     34  11  10     1.852468770773   163.24563007    79.46358601
 H     35  34  11     1.830408563193   103.32131291   213.69576463
 N     21  20  19     3.683156498544   155.66167968   168.92912633
 H     37  21  20     1.922334580130   113.46004604   152.30877368
 H     37  21  20     1.921462597466   111.16253118    32.21439733
 H     37  21  20     1.918037234685   110.40059822   273.14832680

---------------------
BASIS SET INFORMATION
---------------------
There are 3 groups of distinct atoms

 Group   1 Type H   : 6s3p2d contracted to 4s3p2d pattern {3111/111/11}
 Group   2 Type O   : 19s6p3d2f contracted to 5s4p3d2f pattern {88111/3111/111/11}
 Group   3 Type N   : 19s6p3d2f contracted to 5s4p3d2f pattern {88111/3111/111/11}

Atom   0H    basis set group =>   1
Atom   1O    basis set group =>   2
Atom   2H    basis set group =>   1
Atom   3H    basis set group =>   1
Atom   4O    basis set group =>   2
Atom   5H    basis set group =>   1
Atom   6H    basis set group =>   1
Atom   7O    basis set group =>   2
Atom   8H    basis set group =>   1
Atom   9H    basis set group =>   1
Atom  10O    basis set group =>   2
Atom  11H    basis set group =>   1
Atom  12H    basis set group =>   1
Atom  13O    basis set group =>   2
Atom  14H    basis set group =>   1
Atom  15H    basis set group =>   1
Atom  16O    basis set group =>   2
Atom  17H    basis set group =>   1
Atom  18H    basis set group =>   1
Atom  19O    basis set group =>   2
Atom  20H    basis set group =>   1
Atom  21H    basis set group =>   1
Atom  22O    basis set group =>   2
Atom  23H    basis set group =>   1
Atom  24H    basis set group =>   1
Atom  25O    basis set group =>   2
Atom  26H    basis set group =>   1
Atom  27H    basis set group =>   1
Atom  28O    basis set group =>   2
Atom  29H    basis set group =>   1
Atom  30H    basis set group =>   1
Atom  31O    basis set group =>   2
Atom  32H    basis set group =>   1
Atom  33H    basis set group =>   1
Atom  34O    basis set group =>   2
Atom  35H    basis set group =>   1
Atom  36N    basis set group =>   3
Atom  37H    basis set group =>   1
Atom  38H    basis set group =>   1
Atom  39H    basis set group =>   1
---------------------------------
AUXILIARY/C BASIS SET INFORMATION
---------------------------------
There are 3 groups of distinct atoms

 Group   1 Type H   : 5s4p3d2f contracted to 5s4p3d2f pattern {11111/1111/111/11}
 Group   2 Type O   : 9s7p6d4f2g contracted to 9s7p6d4f2g pattern {111111111/1111111/111111/1111/11}
 Group   3 Type N   : 9s7p6d4f2g contracted to 9s7p6d4f2g pattern {111111111/1111111/111111/1111/11}

Atom   0H    basis set group =>   1
Atom   1O    basis set group =>   2
Atom   2H    basis set group =>   1
Atom   3H    basis set group =>   1
Atom   4O    basis set group =>   2
Atom   5H    basis set group =>   1
Atom   6H    basis set group =>   1
Atom   7O    basis set group =>   2
Atom   8H    basis set group =>   1
Atom   9H    basis set group =>   1
Atom  10O    basis set group =>   2
Atom  11H    basis set group =>   1
Atom  12H    basis set group =>   1
Atom  13O    basis set group =>   2
Atom  14H    basis set group =>   1
Atom  15H    basis set group =>   1
Atom  16O    basis set group =>   2
Atom  17H    basis set group =>   1
Atom  18H    basis set group =>   1
Atom  19O    basis set group =>   2
Atom  20H    basis set group =>   1
Atom  21H    basis set group =>   1
Atom  22O    basis set group =>   2
Atom  23H    basis set group =>   1
Atom  24H    basis set group =>   1
Atom  25O    basis set group =>   2
Atom  26H    basis set group =>   1
Atom  27H    basis set group =>   1
Atom  28O    basis set group =>   2
Atom  29H    basis set group =>   1
Atom  30H    basis set group =>   1
Atom  31O    basis set group =>   2
Atom  32H    basis set group =>   1
Atom  33H    basis set group =>   1
Atom  34O    basis set group =>   2
Atom  35H    basis set group =>   1
Atom  36N    basis set group =>   3
Atom  37H    basis set group =>   1
Atom  38H    basis set group =>   1
Atom  39H    basis set group =>   1


           ************************************************************
           *        Program running with 10 parallel MPI-processes    *
           *              working on a common directory               *
           ************************************************************
------------------------------------------------------------------------------
                           ORCA GTO INTEGRAL CALCULATION
------------------------------------------------------------------------------

                         BASIS SET STATISTICS AND STARTUP INFO

 # of primitive gaussian shells          ...  687
 # of primitive gaussian functions       ... 1533
 # of contracted shells                  ...  425
 # of contracted basis functions         ... 1219
 Highest angular momentum                ...    3
 Maximum contraction depth               ...    8
 Integral package used                   ... LIBINT
 Integral threshhold            Thresh   ...  1.000e-10
 Primitive cut-off              TCut     ...  1.000e-11


------------------------------ INTEGRAL EVALUATION ----------------------------


 * One electron integrals 
 Pre-screening matrix                    ... done
 Shell pair data                         ... done (   0.031 sec)



           ************************************************************
           *        Program running with 10 parallel MPI-processes    *
           *              working on a common directory               *
           ************************************************************
-------------------------------------------------------------------------------
                                 ORCA SCF
-------------------------------------------------------------------------------

------------
SCF SETTINGS
------------
Hamiltonian:
 Ab initio Hamiltonian  Method          .... Hartree-Fock(GTOs)


General Settings:
 Integral files         IntName         .... DLPNO_CP33
 Hartree-Fock type      HFTyp           .... RHF
 Total Charge           Charge          ....    0
 Multiplicity           Mult            ....    1
 Number of Electrons    NEL             ....  130
 Basis Dimension        Dim             .... 1219
 Nuclear Repulsion      ENuc            ....   1085.2207036832 Eh

Convergence Acceleration:
 DIIS                   CNVDIIS         .... on
   Start iteration      DIISMaxIt       ....    12
   Startup error        DIISStart       ....  0.200000
   # of expansion vecs  DIISMaxEq       ....     5
   Bias factor          DIISBfac        ....   1.050
   Max. coefficient     DIISMaxC        ....  10.000
 Newton-Raphson         CNVNR           .... off
 SOSCF                  CNVSOSCF        .... on
   Start iteration      SOSCFMaxIt      ....   150
   Startup grad/error   SOSCFStart      ....  0.003300
 Level Shifting         CNVShift        .... on
   Level shift para.    LevelShift      ....    0.2500
   Turn off err/grad.   ShiftErr        ....    0.0010
 Zerner damping         CNVZerner       .... off
 Static damping         CNVDamp         .... on
   Fraction old density DampFac         ....    0.7000
   Max. Damping (<1)    DampMax         ....    0.9800
   Min. Damping (>=0)   DampMin         ....    0.0000
   Turn off err/grad.   DampErr         ....    0.1000
 Fernandez-Rico         CNVRico         .... off

SCF Procedure:
 Maximum # iterations   MaxIter         ....   125
 SCF integral mode      SCFMode         .... Direct
   Integral package                     .... LIBINT
 Reset frequency        DirectResetFreq ....    20
 Integral Threshold     Thresh          ....  1.000e-10 Eh
 Primitive CutOff       TCut            ....  1.000e-11 Eh

Convergence Tolerance:
 Convergence Check Mode ConvCheckMode   .... Total+1el-Energy
 Convergence forced     ConvForced      .... 1
 Energy Change          TolE            ....  1.000e-06 Eh
 1-El. energy change                    ....  1.000e-03 Eh
 Orbital Gradient       TolG            ....  5.000e-05
 Orbital Rotation angle TolX            ....  5.000e-05
 DIIS Error             TolErr          ....  1.000e-06


Diagonalization of the overlap matrix:
Smallest eigenvalue                        ... 5.588e-06
Time for diagonalization                   ...    0.327 sec
Threshold for overlap eigenvalues          ... 1.000e-08
Number of eigenvalues below threshold      ... 0
Time for construction of square roots      ...    0.267 sec
Total time needed                          ...    0.600 sec

-------------------
DFT GRID GENERATION
-------------------

General Integration Accuracy     IntAcc      ...  4.340
Radial Grid Type                 RadialGrid  ... Gauss-Chebyshev
Angular Grid (max. acc.)         AngularGrid ... Lebedev-110
Angular grid pruning method      GridPruning ... 3 (G Style)
Weight generation scheme         WeightScheme... Becke
Basis function cutoff            BFCut       ...    1.0000e-10
Integration weight cutoff        WCut        ...    1.0000e-14
Grids for H and He will be reduced by one unit

# of grid points (after initial pruning)     ...  43732 (   0.0 sec)
# of grid points (after weights+screening)   ...  39795 (   0.1 sec)
nearest neighbour list constructed           ...    0.0 sec
Grid point re-assignment to atoms done       ...    0.0 sec
Grid point division into batches done        ...    0.0 sec
Reduced shell lists constructed in    0.2 sec

Total number of grid points                  ...    39795
Total number of batches                      ...      641
Average number of points per batch           ...       62
Average number of grid points per atom       ...      995
Average number of shells per batch           ...   228.83 (53.84%)
Average number of basis functions per batch  ...   604.41 (49.58%)
Average number of large shells per batch     ...   162.15 (70.86%)
Average number of large basis fcns per batch ...   407.36 (67.40%)
Maximum spatial batch extension              ...  17.73, 11.94, 13.43 au
Average spatial batch extension              ...   0.35,  0.30,  0.33 au

Time for grid setup =    0.320 sec

------------------------------
INITIAL GUESS: MODEL POTENTIAL
------------------------------
Loading Hartree-Fock densities                     ... done
Calculating cut-offs                               ... done
Setting up the integral package                    ... done
Initializing the effective Hamiltonian             ... done
Starting the Coulomb interaction                   ... done (   0.6 sec)
Reading the grid                                   ... done
Mapping shells                                     ... done
Starting the XC term evaluation                    ... done (   0.4 sec)
Transforming the Hamiltonian                       ... done (   0.2 sec)
Diagonalizing the Hamiltonian                      ... done (   0.3 sec)
Back transforming the eigenvectors                 ... done (   0.1 sec)
Now organizing SCF variables                       ... done
                      ------------------
                      INITIAL GUESS DONE (   2.1 sec)
                      ------------------
--------------
SCF ITERATIONS
--------------
ITER       Energy         Delta-E        Max-DP      RMS-DP      [F,P]     Damp
               ***  Starting incremental Fock matrix formation  ***
  0   -967.8387814301   0.000000000000 0.03446937  0.00036662  0.3854624 0.7000
  1   -968.2795582701  -0.440776839972 0.02629523  0.00026660  0.2266084 0.7000
                               ***Turning on DIIS***
  2   -968.5154122456  -0.235853975497 0.01738687  0.00017059  0.1212396 0.7000
  3   -970.4171453151  -1.901733069487 0.05815286  0.00039812  0.0848999 0.0000
  4   -968.6420011064   1.775144208690 0.00652832  0.00005277  0.0150439 0.0000
  5   -968.9432180735  -0.301216967052 0.00695734  0.00003112  0.0033578 0.0000
                      *** Initiating the SOSCF procedure ***
                           *** Shutting down DIIS ***
                      *** Re-Reading the Fockian *** 
                      *** Removing any level shift *** 
ITER      Energy       Delta-E        Grad      Rot      Max-DP    RMS-DP
  6   -968.95341997  -0.0102018985  0.000437  0.000437  0.002040  0.000015
               *** Restarting incremental Fock matrix formation ***
  7   -968.97435084  -0.0209308680  0.000147  0.000266  0.000705  0.000005
  8   -968.97436189  -0.0000110497  0.000061  0.000223  0.000565  0.000004
  9   -968.97436449  -0.0000026030  0.000030  0.000028  0.000207  0.000002
                 **** Energy Check signals convergence ****
              ***Rediagonalizing the Fockian in SOSCF/NRSCF***

               *****************************************************
               *                     SUCCESS                       *
               *           SCF CONVERGED AFTER  10 CYCLES          *
               *****************************************************


----------------
TOTAL SCF ENERGY
----------------

Total Energy       :         -968.97436485 Eh          -26367.13295 eV

Components:
Nuclear Repulsion  :         1085.22070368 Eh           29530.35664 eV
Electronic Energy  :        -2054.19506853 Eh          -55897.48959 eV
One Electron Energy:        -3502.13824216 Eh          -95298.02643 eV
Two Electron Energy:         1447.94317363 Eh           39400.53684 eV

Virial components:
Potential Energy   :        -1936.34194105 Eh          -52690.54295 eV
Kinetic Energy     :          967.36757621 Eh           26323.41000 eV
Virial Ratio       :            2.00166099


---------------
SCF CONVERGENCE
---------------

  Last Energy change         ...   -3.5397e-07  Tolerance :   1.0000e-06
  Last MAX-Density change    ...    4.0400e-04  Tolerance :   1.0000e-05
  Last RMS-Density change    ...    2.4125e-06  Tolerance :   1.0000e-06
  Last Orbital Gradient      ...    4.0864e-06  Tolerance :   5.0000e-05
  Last Orbital Rotation      ...    6.4800e-06  Tolerance :   5.0000e-05

             **** THE GBW FILE WAS UPDATED (DLPNO_CP33.gbw) ****
             **** DENSITY FILE WAS UPDATED (DLPNO_CP33.scfp) ****
             **** ENERGY FILE WAS UPDATED (DLPNO_CP33.en.tmp) ****
             **** THE GBW FILE WAS UPDATED (DLPNO_CP33.gbw) ****
             **** DENSITY FILE WAS UPDATED (DLPNO_CP33.scfp) ****
----------------
ORBITAL ENERGIES
----------------

  NO   OCC          E(Eh)            E(eV) 
   0   2.0000     -20.645862      -561.8025 
   1   2.0000     -20.612421      -560.8925 
   2   2.0000     -20.593154      -560.3682 
   3   2.0000     -20.584679      -560.1376 
   4   2.0000     -20.566658      -559.6472 
   5   2.0000     -20.559245      -559.4455 
   6   2.0000     -20.558463      -559.4242 
   7   2.0000     -20.552559      -559.2636 
   8   2.0000     -20.548000      -559.1395 
   9   2.0000     -20.527222      -558.5741 
  10   2.0000     -20.513217      -558.1930 
  11   2.0000     -20.491561      -557.6037 
  12   2.0000     -15.562093      -423.4661 
  13   2.0000      -1.426130       -38.8070 
  14   2.0000      -1.398726       -38.0613 
  15   2.0000      -1.377539       -37.4847 
  16   2.0000      -1.371593       -37.3230 
  17   2.0000      -1.356285       -36.9064 
  18   2.0000      -1.339657       -36.4539 
  19   2.0000      -1.336178       -36.3592 
  20   2.0000      -1.333247       -36.2795 
  21   2.0000      -1.330030       -36.1920 
  22   2.0000      -1.304791       -35.5052 
  23   2.0000      -1.302148       -35.4332 
  24   2.0000      -1.269916       -34.5562 
  25   2.0000      -1.163863       -31.6703 
  26   2.0000      -0.786046       -21.3894 
  27   2.0000      -0.763891       -20.7865 
  28   2.0000      -0.742835       -20.2136 
  29   2.0000      -0.741973       -20.1901 
  30   2.0000      -0.732007       -19.9189 
  31   2.0000      -0.722163       -19.6511 
  32   2.0000      -0.715823       -19.4785 
  33   2.0000      -0.713504       -19.4154 
  34   2.0000      -0.711657       -19.3652 
  35   2.0000      -0.691296       -18.8111 
  36   2.0000      -0.679507       -18.4903 
  37   2.0000      -0.663564       -18.0565 
  38   2.0000      -0.656327       -17.8596 
  39   2.0000      -0.651956       -17.7406 
  40   2.0000      -0.648026       -17.6337 
  41   2.0000      -0.637404       -17.3446 
  42   2.0000      -0.620558       -16.8863 
  43   2.0000      -0.613753       -16.7011 
  44   2.0000      -0.605308       -16.4713 
  45   2.0000      -0.592269       -16.1165 
  46   2.0000      -0.587086       -15.9754 
  47   2.0000      -0.580916       -15.8075 
  48   2.0000      -0.571382       -15.5481 
  49   2.0000      -0.560644       -15.2559 
  50   2.0000      -0.555166       -15.1068 
  51   2.0000      -0.548586       -14.9278 
  52   2.0000      -0.532551       -14.4915 
  53   2.0000      -0.528643       -14.3851 
  54   2.0000      -0.522487       -14.2176 
  55   2.0000      -0.516666       -14.0592 
  56   2.0000      -0.504063       -13.7163 
  57   2.0000      -0.501587       -13.6489 
  58   2.0000      -0.498676       -13.5697 
  59   2.0000      -0.495748       -13.4900 
  60   2.0000      -0.486571       -13.2403 
  61   2.0000      -0.469578       -12.7779 
  62   2.0000      -0.457686       -12.4543 
  63   2.0000      -0.455103       -12.3840 
  64   2.0000      -0.437381       -11.9018 
  65   0.0000      -0.001318        -0.0359 
  66   0.0000       0.022821         0.6210 
  67   0.0000       0.027279         0.7423 
  68   0.0000       0.029787         0.8105 
  69   0.0000       0.038293         1.0420 
  70   0.0000       0.043893         1.1944 
  71   0.0000       0.049259         1.3404 
  72   0.0000       0.055410         1.5078 
  73   0.0000       0.058475         1.5912 
  74   0.0000       0.061933         1.6853 
  75   0.0000       0.064313         1.7500 
  76   0.0000       0.069922         1.9027 
  77   0.0000       0.070995         1.9319 
  78   0.0000       0.078961         2.1486 
  79   0.0000       0.083067         2.2604 
  80   0.0000       0.084715         2.3052 
  81   0.0000       0.087681         2.3859 
  82   0.0000       0.089307         2.4302 
  83   0.0000       0.091958         2.5023 
  84   0.0000       0.096534         2.6268 
  85   0.0000       0.100851         2.7443 
  86   0.0000       0.104801         2.8518 
  87   0.0000       0.109990         2.9930 
  88   0.0000       0.112844         3.0706 
  89   0.0000       0.118501         3.2246 
  90   0.0000       0.119063         3.2399 
  91   0.0000       0.124575         3.3899 
  92   0.0000       0.134468         3.6591 
  93   0.0000       0.141655         3.8546 
  94   0.0000       0.146261         3.9800 
  95   0.0000       0.152064         4.1379 
  96   0.0000       0.159391         4.3372 
  97   0.0000       0.161315         4.3896 
  98   0.0000       0.161799         4.4028 
  99   0.0000       0.171149         4.6572 
 100   0.0000       0.173150         4.7117 
 101   0.0000       0.175276         4.7695 
 102   0.0000       0.177461         4.8290 
 103   0.0000       0.182884         4.9765 
 104   0.0000       0.185457         5.0465 
 105   0.0000       0.187805         5.1104 
 106   0.0000       0.191110         5.2004 
 107   0.0000       0.195575         5.3219 
 108   0.0000       0.197517         5.3747 
 109   0.0000       0.198726         5.4076 
 110   0.0000       0.202178         5.5015 
 111   0.0000       0.204409         5.5622 
 112   0.0000       0.209318         5.6958 
 113   0.0000       0.210843         5.7373 
 114   0.0000       0.215498         5.8640 
 115   0.0000       0.216098         5.8803 
 116   0.0000       0.219137         5.9630 
 117   0.0000       0.223034         6.0691 
 118   0.0000       0.224834         6.1180 
 119   0.0000       0.231443         6.2979 
 120   0.0000       0.237709         6.4684 
 121   0.0000       0.238292         6.4842 
 122   0.0000       0.239163         6.5080 
 123   0.0000       0.241118         6.5612 
 124   0.0000       0.244381         6.6500 
 125   0.0000       0.246528         6.7084 
 126   0.0000       0.254039         6.9127 
 127   0.0000       0.256347         6.9755 
 128   0.0000       0.258714         7.0400 
 129   0.0000       0.259395         7.0585 
 130   0.0000       0.263822         7.1789 
 131   0.0000       0.265699         7.2300 
 132   0.0000       0.270691         7.3659 
 133   0.0000       0.273343         7.4380 
 134   0.0000       0.276583         7.5262 
 135   0.0000       0.281888         7.6706 
 136   0.0000       0.284476         7.7410 
 137   0.0000       0.287278         7.8172 
 138   0.0000       0.289666         7.8822 
 139   0.0000       0.294954         8.0261 
 140   0.0000       0.300171         8.1681 
 141   0.0000       0.305443         8.3115 
 142   0.0000       0.310047         8.4368 
 143   0.0000       0.316639         8.6162 
 144   0.0000       0.318025         8.6539 
 145   0.0000       0.323041         8.7904 
 146   0.0000       0.329097         8.9552 
 147   0.0000       0.330315         8.9883 
 148   0.0000       0.334877         9.1125 
 149   0.0000       0.342529         9.3207 
 150   0.0000       0.344483         9.3739 
 151   0.0000       0.348817         9.4918 
 152   0.0000       0.350105         9.5268 
 153   0.0000       0.356712         9.7066 
 154   0.0000       0.358152         9.7458 
 155   0.0000       0.359448         9.7811 
 156   0.0000       0.364578         9.9207 
 157   0.0000       0.367120         9.9898 
 158   0.0000       0.374742        10.1973 
 159   0.0000       0.377133        10.2623 
 160   0.0000       0.380308        10.3487 
 161   0.0000       0.384024        10.4498 
 162   0.0000       0.389243        10.5918 
 163   0.0000       0.394125        10.7247 
 164   0.0000       0.396404        10.7867 
 165   0.0000       0.398349        10.8396 
 166   0.0000       0.402524        10.9532 
 167   0.0000       0.403587        10.9822 
 168   0.0000       0.407688        11.0938 
 169   0.0000       0.410335        11.1658 
 170   0.0000       0.412480        11.2242 
 171   0.0000       0.416403        11.3309 
 172   0.0000       0.418453        11.3867 
 173   0.0000       0.421055        11.4575 
 174   0.0000       0.426187        11.5971 
 175   0.0000       0.427752        11.6397 
 176   0.0000       0.429935        11.6991 
 177   0.0000       0.433707        11.8018 
 178   0.0000       0.434165        11.8142 
 179   0.0000       0.435531        11.8514 
 180   0.0000       0.439607        11.9623 
 181   0.0000       0.446252        12.1431 
 182   0.0000       0.446615        12.1530 
 183   0.0000       0.449289        12.2258 
 184   0.0000       0.451900        12.2968 
 185   0.0000       0.454844        12.3769 
 186   0.0000       0.456304        12.4167 
 187   0.0000       0.461187        12.5495 
 188   0.0000       0.463990        12.6258 
 189   0.0000       0.464702        12.6452 
 190   0.0000       0.470967        12.8157 
 191   0.0000       0.471466        12.8293 
 192   0.0000       0.472762        12.8645 
 193   0.0000       0.474122        12.9015 
 194   0.0000       0.477347        12.9893 
 195   0.0000       0.481654        13.1065 
 196   0.0000       0.482726        13.1356 
 197   0.0000       0.487505        13.2657 
 198   0.0000       0.489292        13.3143 
 199   0.0000       0.493998        13.4424 
 200   0.0000       0.495741        13.4898 
 201   0.0000       0.496991        13.5238 
 202   0.0000       0.500174        13.6104 
 203   0.0000       0.502831        13.6827 
 204   0.0000       0.507963        13.8224 
 205   0.0000       0.508290        13.8313 
 206   0.0000       0.514533        14.0012 
 207   0.0000       0.518149        14.0995 
 208   0.0000       0.519920        14.1478 
 209   0.0000       0.524847        14.2818 
 210   0.0000       0.528348        14.3771 
 211   0.0000       0.534511        14.5448 
 212   0.0000       0.536025        14.5860 
 213   0.0000       0.536280        14.5929 
 214   0.0000       0.539584        14.6828 
 215   0.0000       0.542858        14.7719 
 216   0.0000       0.548829        14.9344 
 217   0.0000       0.551038        14.9945 
 218   0.0000       0.553353        15.0575 
 219   0.0000       0.554866        15.0987 
 220   0.0000       0.564087        15.3496 
 221   0.0000       0.570059        15.5121 
 222   0.0000       0.570722        15.5301 
 223   0.0000       0.572504        15.5786 
 224   0.0000       0.577343        15.7103 
 225   0.0000       0.578602        15.7446 
 226   0.0000       0.583374        15.8744 
 227   0.0000       0.589686        16.0462 
 228   0.0000       0.593555        16.1515 
 229   0.0000       0.600315        16.3354 
 230   0.0000       0.608105        16.5474 
 231   0.0000       0.611810        16.6482 
 232   0.0000       0.615674        16.7533 
 233   0.0000       0.619430        16.8556 
 234   0.0000       0.623688        16.9714 
 235   0.0000       0.625234        17.0135 
 236   0.0000       0.625615        17.0238 
 237   0.0000       0.632252        17.2045 
 238   0.0000       0.649913        17.6850 
 239   0.0000       0.650200        17.6928 
 240   0.0000       0.654127        17.7997 
 241   0.0000       0.656159        17.8550 
 242   0.0000       0.657929        17.9032 
 243   0.0000       0.661966        18.0130 
 244   0.0000       0.665128        18.0990 
 245   0.0000       0.669529        18.2188 
 246   0.0000       0.675073        18.3697 
 247   0.0000       0.678905        18.4739 
 248   0.0000       0.690676        18.7943 
 249   0.0000       0.691445        18.8152 
 250   0.0000       0.696576        18.9548 
 251   0.0000       0.702138        19.1062 
 252   0.0000       0.703719        19.1492 
 253   0.0000       0.712162        19.3789 
 254   0.0000       0.714528        19.4433 
 255   0.0000       0.717129        19.5141 
 256   0.0000       0.725203        19.7338 
 257   0.0000       0.726636        19.7728 
 258   0.0000       0.735088        20.0028 
 259   0.0000       0.740657        20.1543 
 260   0.0000       0.749502        20.3950 
 261   0.0000       0.752354        20.4726 
 262   0.0000       0.757409        20.6101 
 263   0.0000       0.760087        20.6830 
 264   0.0000       0.760843        20.7036 
 265   0.0000       0.766806        20.8659 
 266   0.0000       0.773036        21.0354 
 267   0.0000       0.777463        21.1559 
 268   0.0000       0.783194        21.3118 
 269   0.0000       0.785749        21.3813 
 270   0.0000       0.789407        21.4808 
 271   0.0000       0.795162        21.6375 
 272   0.0000       0.797903        21.7120 
 273   0.0000       0.801168        21.8009 
 274   0.0000       0.805464        21.9178 
 275   0.0000       0.809310        22.0224 
 276   0.0000       0.812771        22.1166 
 277   0.0000       0.818135        22.2626 
 278   0.0000       0.819893        22.3104 
 279   0.0000       0.822233        22.3741 
 280   0.0000       0.825774        22.4705 
 281   0.0000       0.831299        22.6208 
 282   0.0000       0.837652        22.7937 
 283   0.0000       0.842777        22.9331 
 284   0.0000       0.845786        23.0150 
 285   0.0000       0.849552        23.1175 
 286   0.0000       0.852218        23.1900 
 287   0.0000       0.857985        23.3470 
 288   0.0000       0.860062        23.4035 
 289   0.0000       0.861865        23.4525 
 290   0.0000       0.868652        23.6372 
 291   0.0000       0.880844        23.9690 
 292   0.0000       0.881582        23.9891 
 293   0.0000       0.883586        24.0436 
 294   0.0000       0.888700        24.1827 
 295   0.0000       0.893485        24.3130 
 296   0.0000       0.897082        24.4108 
 297   0.0000       0.897439        24.4206 
 298   0.0000       0.900796        24.5119 
 299   0.0000       0.904036        24.6001 
 300   0.0000       0.907652        24.6985 
 301   0.0000       0.912317        24.8254 
 302   0.0000       0.915428        24.9101 
 303   0.0000       0.919012        25.0076 
 304   0.0000       0.922533        25.1034 
 305   0.0000       0.926251        25.2046 
 306   0.0000       0.927869        25.2486 
 307   0.0000       0.932730        25.3809 
 308   0.0000       0.935183        25.4476 
 309   0.0000       0.940609        25.5953 
 310   0.0000       0.944073        25.6895 
 311   0.0000       0.951445        25.8901 
 312   0.0000       0.951981        25.9047 
 313   0.0000       0.956540        26.0288 
 314   0.0000       0.957832        26.0639 
 315   0.0000       0.963057        26.2061 
 316   0.0000       0.966581        26.3020 
 317   0.0000       0.968403        26.3516 
 318   0.0000       0.976128        26.5618 
 319   0.0000       0.979320        26.6487 
 320   0.0000       0.983095        26.7514 
 321   0.0000       0.983596        26.7650 
 322   0.0000       0.985657        26.8211 
 323   0.0000       0.991485        26.9797 
 324   0.0000       0.995175        27.0801 
 325   0.0000       0.997510        27.1436 
 326   0.0000       0.998977        27.1835 
 327   0.0000       1.003587        27.3090 
 328   0.0000       1.008365        27.4390 
 329   0.0000       1.010900        27.5080 
 330   0.0000       1.012358        27.5476 
 331   0.0000       1.017571        27.6895 
 332   0.0000       1.021728        27.8026 
 333   0.0000       1.024017        27.8649 
 334   0.0000       1.026621        27.9358 
 335   0.0000       1.028626        27.9903 
 336   0.0000       1.031938        28.0805 
 337   0.0000       1.037160        28.2226 
 338   0.0000       1.038567        28.2608 
 339   0.0000       1.044137        28.4124 
 340   0.0000       1.045800        28.4577 
 341   0.0000       1.049108        28.5477 
 342   0.0000       1.052331        28.6354 
 343   0.0000       1.053966        28.6799 
 344   0.0000       1.056705        28.7544 
 345   0.0000       1.063981        28.9524 
 346   0.0000       1.066360        29.0171 
 347   0.0000       1.066846        29.0303 
 348   0.0000       1.069291        29.0969 
 349   0.0000       1.074971        29.2515 
 350   0.0000       1.078955        29.3599 
 351   0.0000       1.082759        29.4634 
 352   0.0000       1.088336        29.6151 
 353   0.0000       1.089427        29.6448 
 354   0.0000       1.094273        29.7767 
 355   0.0000       1.097799        29.8726 
 356   0.0000       1.100960        29.9587 
 357   0.0000       1.104671        30.0596 
 358   0.0000       1.111318        30.2405 
 359   0.0000       1.114221        30.3195 
 360   0.0000       1.116523        30.3821 
 361   0.0000       1.119169        30.4541 
 362   0.0000       1.123862        30.5818 
 363   0.0000       1.129469        30.7344 
 364   0.0000       1.131618        30.7929 
 365   0.0000       1.136228        30.9183 
 366   0.0000       1.141585        31.0641 
 367   0.0000       1.142615        31.0921 
 368   0.0000       1.144496        31.1433 
 369   0.0000       1.153632        31.3919 
 370   0.0000       1.155452        31.4415 
 371   0.0000       1.157868        31.5072 
 372   0.0000       1.160209        31.5709 
 373   0.0000       1.164574        31.6897 
 374   0.0000       1.169439        31.8221 
 375   0.0000       1.173314        31.9275 
 376   0.0000       1.175499        31.9869 
 377   0.0000       1.180467        32.1221 
 378   0.0000       1.185641        32.2629 
 379   0.0000       1.186778        32.2939 
 380   0.0000       1.192930        32.4613 
 381   0.0000       1.195315        32.5262 
 382   0.0000       1.200371        32.6638 
 383   0.0000       1.206348        32.8264 
 384   0.0000       1.209808        32.9206 
 385   0.0000       1.210957        32.9518 
 386   0.0000       1.215020        33.0624 
 387   0.0000       1.217189        33.1214 
 388   0.0000       1.224481        33.3198 
 389   0.0000       1.226247        33.3679 
 390   0.0000       1.232810        33.5465 
 391   0.0000       1.233303        33.5599 
 392   0.0000       1.238518        33.7018 
 393   0.0000       1.244031        33.8518 
 394   0.0000       1.247491        33.9460 
 395   0.0000       1.250682        34.0328 
 396   0.0000       1.260751        34.3068 
 397   0.0000       1.264799        34.4169 
 398   0.0000       1.266997        34.4767 
 399   0.0000       1.270900        34.5829 
 400   0.0000       1.279930        34.8287 
 401   0.0000       1.281966        34.8841 
 402   0.0000       1.283126        34.9156 
 403   0.0000       1.284339        34.9486 
 404   0.0000       1.289858        35.0988 
 405   0.0000       1.293449        35.1965 
 406   0.0000       1.299243        35.3542 
 407   0.0000       1.301646        35.4196 
 408   0.0000       1.305479        35.5239 
 409   0.0000       1.310863        35.6704 
 410   0.0000       1.314799        35.7775 
 411   0.0000       1.317019        35.8379 
 412   0.0000       1.319697        35.9108 
 413   0.0000       1.326517        36.0964 
 414   0.0000       1.327524        36.1238 
 415   0.0000       1.330029        36.1919 
 416   0.0000       1.334366        36.3100 
 417   0.0000       1.339919        36.4610 
 418   0.0000       1.345037        36.6003 
 419   0.0000       1.350213        36.7412 
 420   0.0000       1.354618        36.8610 
 421   0.0000       1.360022        37.0081 
 422   0.0000       1.362962        37.0881 
 423   0.0000       1.363685        37.1078 
 424   0.0000       1.368467        37.2379 
 425   0.0000       1.374489        37.4017 
 426   0.0000       1.378391        37.5079 
 427   0.0000       1.381930        37.6042 
 428   0.0000       1.383586        37.6493 
 429   0.0000       1.394351        37.9422 
 430   0.0000       1.398071        38.0434 
 431   0.0000       1.399809        38.0908 
 432   0.0000       1.402087        38.1527 
 433   0.0000       1.407002        38.2865 
 434   0.0000       1.413198        38.4551 
 435   0.0000       1.416419        38.5427 
 436   0.0000       1.422423        38.7061 
 437   0.0000       1.428099        38.8605 
 438   0.0000       1.430695        38.9312 
 439   0.0000       1.434154        39.0253 
 440   0.0000       1.444485        39.3064 
 441   0.0000       1.447528        39.3892 
 442   0.0000       1.451564        39.4991 
 443   0.0000       1.455259        39.5996 
 444   0.0000       1.460743        39.7488 
 445   0.0000       1.464021        39.8380 
 446   0.0000       1.469346        39.9829 
 447   0.0000       1.472675        40.0735 
 448   0.0000       1.477893        40.2155 
 449   0.0000       1.481437        40.3119 
 450   0.0000       1.483189        40.3596 
 451   0.0000       1.490791        40.5665 
 452   0.0000       1.495374        40.6912 
 453   0.0000       1.499623        40.8068 
 454   0.0000       1.504532        40.9404 
 455   0.0000       1.506096        40.9830 
 456   0.0000       1.512249        41.1504 
 457   0.0000       1.523153        41.4471 
 458   0.0000       1.526025        41.5253 
 459   0.0000       1.528519        41.5931 
 460   0.0000       1.535452        41.7818 
 461   0.0000       1.541111        41.9358 
 462   0.0000       1.544792        42.0359 
 463   0.0000       1.548452        42.1355 
 464   0.0000       1.554455        42.2989 
 465   0.0000       1.558153        42.3995 
 466   0.0000       1.562319        42.5129 
 467   0.0000       1.566625        42.6300 
 468   0.0000       1.568790        42.6889 
 469   0.0000       1.571781        42.7703 
 470   0.0000       1.580796        43.0156 
 471   0.0000       1.592158        43.3248 
 472   0.0000       1.594955        43.4009 
 473   0.0000       1.601418        43.5768 
 474   0.0000       1.604480        43.6601 
 475   0.0000       1.613808        43.9140 
 476   0.0000       1.614816        43.9414 
 477   0.0000       1.619872        44.0790 
 478   0.0000       1.620246        44.0891 
 479   0.0000       1.631834        44.4045 
 480   0.0000       1.636179        44.5227 
 481   0.0000       1.640330        44.6357 
 482   0.0000       1.645173        44.7674 
 483   0.0000       1.647757        44.8378 
 484   0.0000       1.653197        44.9858 
 485   0.0000       1.661382        45.2085 
 486   0.0000       1.666243        45.3408 
 487   0.0000       1.669374        45.4260 
 488   0.0000       1.675891        45.6033 
 489   0.0000       1.683241        45.8033 
 490   0.0000       1.685983        45.8779 
 491   0.0000       1.692979        46.0683 
 492   0.0000       1.696917        46.1755 
 493   0.0000       1.700184        46.2644 
 494   0.0000       1.701607        46.3031 
 495   0.0000       1.710945        46.5572 
 496   0.0000       1.713235        46.6195 
 497   0.0000       1.721699        46.8498 
 498   0.0000       1.729227        47.0547 
 499   0.0000       1.730458        47.0882 
 500   0.0000       1.738019        47.2939 
 501   0.0000       1.742018        47.4027 
 502   0.0000       1.742762        47.4230 
 503   0.0000       1.745973        47.5104 
 504   0.0000       1.755937        47.7815 
 505   0.0000       1.757990        47.8374 
 506   0.0000       1.764959        48.0270 
 507   0.0000       1.769740        48.1571 
 508   0.0000       1.772764        48.2394 
 509   0.0000       1.774649        48.2907 
 510   0.0000       1.786107        48.6024 
 511   0.0000       1.790977        48.7350 
 512   0.0000       1.797608        48.9154 
 513   0.0000       1.808810        49.2202 
 514   0.0000       1.813351        49.3438 
 515   0.0000       1.819590        49.5136 
 516   0.0000       1.822887        49.6033 
 517   0.0000       1.827184        49.7202 
 518   0.0000       1.830418        49.8082 
 519   0.0000       1.835288        49.9407 
 520   0.0000       1.843935        50.1760 
 521   0.0000       1.847747        50.2797 
 522   0.0000       1.852703        50.4146 
 523   0.0000       1.858054        50.5602 
[...]
Thresholds for map construction and integral transformation for fine MP2 and CCSD(T) calculation:
   TCutMKN   ...     1.0e-03
   TCutDO    ...     5.0e-03
   TCutPairs ...     1.0e-05
   TCutCMO   ...     1.0e-03
   TCutCPAO  ...     1.0e-03

Thresholds for map construction and integral transformation for strong Triples:
   TCutMKN   ...     1.0e-02
   TCutDO    ...     1.0e-02
   TCutCMO   ...     1.0e-03
   TCutCPAO  ...     1.0e-03

Thresholds for map construction and integral transformation for weak Triples:
   TCutMKN   ...     1.0e-01
   TCutDO    ...     2.0e-02
   TCutCMO   ...     1.0e-03
   TCutCPAO  ...     1.0e-03

--------------------------------
LOCAL RI TRANSFORMATION (IAVPAO)
--------------------------------

Orbital window:       1 to 4
Number of PAOs:    1219
Basis functions:   1219 (425 shells)
Aux. functions:    2620 (742 shells)

Processing maps (0.0 sec)
Average map sizes:
   Aux shells -> MOs               2.0
   Aux shells -> PAOs            598.0
   MOs        -> AO shells       422.8
   PAOs       -> AO shells       251.5

Calculating integrals (5.8 sec, 48.153 MB)
Sorting integrals (1.0 sec, 48.138 MB)
Total time for the integral transformation: 6.8 sec
--------------------------------
INITIAL GUESS AND PNO GENERATION
--------------------------------

PNO truncation parameters                   .... 
    ScaleTCutPNO       =        1.000e-02
    PAOOverlapThresh   =        1.000e-08

    TCutPairs          =        1.000e-05
    TCutPNO            =        1.000e-07
    TCutPNOSingles     =        3.000e-09
    TCutMP2Pairs       =        1.000e-06
    TCutMKN            =        1.000e-03
    TCutDO             =        5.000e-03

Pair selection                          .... not used
Type of local MP2 treatment                 .... full local PMP2
Strategy for PNO selection                  .... occupation number selection
Pair density normalization                  .... MP2 norm
Spin component scaling                      .... not used

PASS-1: Formation of initial guess LMP2 amplitudes
Initial amplitudes guess done. Entering LMP2 iteration loop:
   Max. no of iterations          ...  50
   Energy convergence tolerance   ...    1.0e-07
   Residual convergence tolerance ...    5.0e-07
   Fock matrix cutoff             ...    1.0e-05 Eh
   DIIS convergence acceleration parameters:
        Max # vectors in DIIS     ... 7
        Start iteration of DIIS   ... 0
        Levelshift                ... 2.000e-01
        Damping factor 1          ... 5.000e-01
        Damping factor 2          ... 1.000e+00
   L-MP2 PNO cut-off              ...   1.0e-09
   L-MP2 PNO cut-off (core)       ...   1.0e-11
                           *** Turning on DIIS ***
LMP2-Iter=   0:  ELMP2= -0.239003835084  DE=   3.3e-03 RMAX=   3.9e-03
LMP2-Iter=   1:  ELMP2= -0.241013407202  DE=   2.0e-03 RMAX=   1.3e-03
LMP2-Iter=   2:  ELMP2= -0.241289472278  DE=   2.8e-04 RMAX=   2.2e-04
LMP2-Iter=   3:  ELMP2= -0.241318822164  DE=   2.9e-05 RMAX=   7.2e-05
LMP2-Iter=   4:  ELMP2= -0.241320387589  DE=   1.6e-06 RMAX=   9.1e-06
LMP2-Iter=   5:  ELMP2= -0.241320307773  DE=   8.0e-08 RMAX=   3.2e-06
LMP2-Iter=   6:  ELMP2= -0.241320301332  DE=   6.4e-09 RMAX=   3.1e-07
LMP2-Iter=   7:  ELMP2= -0.241320300319  DE=   1.0e-09 RMAX=   8.9e-08 => CONVERGED
PASS-2: Formation of Pair natural orbitals
   .... Finished loop over pairs

 PNO Occupation Number Statistics: 
  | Av. % of trace(Dij) retained        ...  99.990170773574
  | sigma^2 in % of trace(Dij) retained ...   2.43e-06
  | Av. % of trace(Di) retained         ...  99.999725777061
  | sigma^2 in % of trace(Di) retained  ...   1.46e-09
 Distributions of % trace(Dij) recovered:
  |       >= 99.9  ...    10 (100.0 % of all pairs)
 Distributions of % trace(Di) recovered :
  |       >= 99.9  ...     4 (100.0 % of all I-pairs )

Making pair pair interaction lists          ... done

                       ===========================
                         10 OF   10 PAIRS ARE KEPT
                       ===========================

Total time spent in the initial guess                 ...     7.793 sec
L-MP2 correlation energy (all non-screened pairs)     ...      -0.241320300319 Eh
L-MP2 PNO error correction                            ...      -0.000000665530 Eh
                                                          --------------------
Initial total L-MP2 energy (non-screened pairs)       ...      -0.241320965849 Eh

Initial PNO correlation energy                        ...      -0.241257198000 Eh
sum of pair energies estimated for screened out pairs ...       0.000000000000 Eh
sum of MP2 pair energies for pairs that were not kept ...       0.000000000000 Eh
sum of PNO error estimates for the kept pairs         ...      -0.000063767850 Eh
                                                          --------------------
sum of all corrections                                         -0.000063767850
Initial total correlation energy                               -0.241320965849
Thresholds for map construction and integral transformation for fine MP2 and CCSD(T) calculation:
   TCutMKN   ...     1.0e-03
   TCutDO    ...     5.0e-03
   TCutPairs ...     1.0e-05
   TCutCMO   ...     1.0e-03
   TCutCPAO  ...     1.0e-03

Time for aux screen maps:            0.019
Time for maps after fine MP2:            0.064
-----------------------------
LOCAL RI TRANSFORMATION (IJV)
-----------------------------

Orbital window:       1 to 4
Basis functions:   1219 (425 shells)
Aux. functions:    2620 (742 shells)

Processing maps (0.0 sec)
Average map sizes:
   Aux shells -> MOs(i)            2.0
   Aux shells -> MOs(j)            2.0
   MOs        -> AO shells       422.8

Calculating integrals (5.2 sec, 0.173 MB)
Sorting integrals (0.0 sec, 0.158 MB)
Total time for the integral transformation: 5.3 sec
--------------------------------
LOCAL RI TRANSFORMATION (VABPAO)
--------------------------------

Number of PAOs:    1219
Basis functions:   1219 (425 shells)
Aux. functions:    2620 (742 shells)

Processing maps (0.0 sec)
Average map sizes:
   Aux shells -> PAOs            598.0
   PAOs       -> AO shells       251.5

Calculating integrals (61.9 sec, 27968.365 MB)
Finished


-------------------------------------
Pair Pair Term precalculation with     
RI-(ij|mn) and (im|jn) transformation  
ON THE FLY                             
-------------------------------------

   IBatch   1 (of   1)              ... done (   24.543 sec)
Total EXT                           ...          24.543 sec

---------------------
RI-PNO TRANSFORMATION
---------------------

Total Number of PNOs                   ...   719
Average number of PNOs per pair        ...    71
Maximal number of PNOs per pair        ...    80
   #pairs with  1 -  5 PNOs   :    0
   #pairs with  6 - 10 PNOs   :    0
   #pairs with 11 - 15 PNOs   :    0
   #pairs with 16 - 20 PNOs   :    0
   #pairs with 21 - 25 PNOs   :    0
   #pairs with 26 - 30 PNOs   :    0
   #pairs with 31 - 35 PNOs   :    0
   #pairs with 36 - 40 PNOs   :    0
   #pairs with 41 - 45 PNOs   :    0
   #pairs with 46 - 50 PNOs   :    0
   #pairs with 61 - 65 PNOs   :    3
   #pairs with 71 - 75 PNOs   :    4
   #pairs with 76 - 80 PNOs   :    3

Generation of (ij|ab)[P] integrals            ... on
Generation of (ia|bc)[P],(ja|bc)[P] integrals ... on
Storage of 3 and 4 external integrals         ... on
Generation of ALL (ka|bc)[P] integrals        ... on
Keep RI integrals in memory                   ... off

Ibatch:  1 (of  1)
Starting 2-4 index PNO integral generation ... done

Timings:
Total PNO integral transformation time     ...         35.341 sec
Size of the 3-external file                ...        29 MB
Size of the 4-external file                ...       276 MB
Size of the IKJL file                      ...         0 MB
Size of the all 3-external file            ...        59 MB
Size of the 1-external file                ...         0 MB

Making pair/pair overlap matrices          ... done (    0.226 sec)
Size of the pair overlap file              ... 5 MB
Redoing the guess amplitudes               ... done (    0.009 sec)

-------------------------
FINAL STARTUP INFORMATION
-------------------------

E(0)                                       ...    -56.220132214
E(L-MP2)                                   ...     -0.241320966
E(L-MP2) including corrections             ...     -0.241320966
Initial E(tot)                             ...    -56.461453180
<T|T>                                      ...      0.062496705
Number of pairs included                   ... 10
Total number of pairs                      ... 10

------------------------------------------------
                  RHF COUPLED CLUSTER ITERATIONS
------------------------------------------------

Number of PNO amplitudes to be optimized   ...        52195
Number of non-PNO amplitudes               ...     14737960
Untruncated number of regular amplitudes   ...     14737960

Iter       E(tot)           E(Corr)          Delta-E          Residual     Time
  0    -56.455786955     -0.235590973      0.005729992      0.009574717    2.49
                           *** Turning on DIIS ***
  1    -56.465770614     -0.245574633     -0.009983659      0.005185450    2.47
  2    -56.471800812     -0.251604830     -0.006030198      0.001661368    2.52
  3    -56.472897788     -0.252701806     -0.001096976      0.000705693    2.51
  4    -56.473113834     -0.252917852     -0.000216046      0.000366710    2.48
  5    -56.473158194     -0.252962213     -0.000044360      0.000198246    2.49
  6    -56.473171831     -0.252975850     -0.000013637      0.000086785    2.49
  7    -56.473173613     -0.252977632     -0.000001782      0.000032689    2.53
  8    -56.473174367     -0.252978385     -0.000000753      0.000011910    2.52
               --- The Coupled-Cluster iterations have converged ---

----------------------
COUPLED CLUSTER ENERGY
----------------------

E(0)                                       ...    -56.220132214
E(CORR)(strong-pairs)                      ...     -0.252978385
E(CORR)(weak-pairs)                        ...     -0.000063768
E(CORR)(corrected)                         ...     -0.253042153
E(TOT)                                     ...    -56.473174367
Singles Norm <S|S>**1/2                    ...      0.022960638  
T1 diagnostic                              ...      0.008117811  

------------------
LARGEST AMPLITUDES
------------------
   2->  5   2->  5       0.033270
   3->  5   3->  5       0.032000
   4->  5   4->  5       0.031270
   4-> 13   4-> 13       0.028298
   2-> 13   2-> 13       0.027168
   1->  6   1->  6       0.026238
   2->  5   2-> 13       0.025330
   2-> 13   2->  5       0.025330
   4-> 13   4->  5       0.025265
   4->  5   4-> 13       0.025265
   3-> 13   3-> 13       0.024342
   3->  5   3-> 13       0.023780
   3-> 13   3->  5       0.023780
   1-> 18   1-> 18       0.020007
   1->  6   1-> 18       0.019695
   1-> 18   1->  6       0.019695


-------------------------------------------
DLPNO BASED TRIPLES CORRECTION
-------------------------------------------

Singles multiplier          ...  1.000000
TCutTNO                     ... 1.000e-09
TCutMP2Pairs                ... 1.000e-06
TCutDOStrong                ... 1.000e-02
TCutMKNStrong               ... 1.000e-02
TCutDOWeak                  ... 2.000e-02
TCutMKNWeak                 ... 1.000e-01

Fragment selection                          .... not used
Fock matrix occ-virt block is zero --> Setting DT_in_Triples to false.
Number of Triples that are to be computed   ...        16

 . . . . . . . . .
10% done  
20% done  
30% done  
40% done  
50% done  
60% done  
70% done  
80% done  
90% done               (     16.483 sec)
Triples timings:
Total time for T0               ...    19.310 sec
Total time for Iterative (T)    ...     0.000 sec
Total time of overall (T)       ...    19.310 sec

Triples List generation         ...     0.000 sec
TNO generation                  ...     2.763 sec
Pair density generation         ...     0.005 sec
Look up tables                  ...     0.000 sec
Generating 3-index integrals    ...    15.743 sec
  Make 4-ind.int. from 3-ind.int...     0.246 sec
  Projecting amplitudes (D + S) ...     0.235 sec
  Downprojecting integrals      ...     0.000 sec
  Energy contr. (sum over a,b,c)...     0.059 sec
Fitting ET(->0)                 ...     0.000 sec

Everything after 3-index        ...     0.740 sec

Timing details:
 TNO integrals                  ...    15.963 sec
   Reading 3-index integrals    ...     2.093 sec
   Sorting integrals            ...     1.051 sec
       Sorting integrals 1      ...     0.000 sec
       Sorting integrals 2      ...     0.919 sec
       Sorting integrals 3      ...     0.006 sec
       Sorting integrals 4      ...     0.000 sec
       Sorting integrals 5      ...     0.003 sec
       Sorting integrals 6      ...     0.122 sec
   Calculating local VM**-1/2   ...     0.003 sec
   Orthogonal. integrals        ...     0.007 sec
   Multipl. 3-index integrals   ...    12.808 sec
   All concerning IRIab (w/TNO) ...     0.102 sec

 Calculate W0/W1                ...     0.196 sec
 W 3-ext contribution           ...     0.132 sec
 W 3-int contribution           ...     0.012 sec
 Sorting W                      ...     0.047 sec

 V exchange contribution        ...     0.024 sec

 Timings for Triples without generation
     of 3-index integrals       ...     0.740 sec
       0 weak pairs             ...     0.740 sec
       1 weak pair              ...     0.000 sec
       2 weak pairs             ...     0.000 sec
       3 weak pairs             ...     0.000 sec
  Extra time for extrapolation  ...     0.000 sec

Number of Triples   (0, 1, 2, 3 weak pairs; overall):     16       0       0       0  (    16)
Number of Atoms     (0, 1, 2, 3 weak pairs; overall):   33.8     0.0     0.0     0.0  (    40)
Number of PAOs      (0, 1, 2, 3 weak pairs; overall): 1023.5     0.0     0.0     0.0  (  1219)
Number of AuxFcns   (0, 1, 2, 3 weak pairs; overall):  303.6     0.0     0.0     0.0  (  2620)
Number of TNOs      (0, 1, 2, 3 weak pairs         ):  115.2     0.0     0.0     0.0
Aver. Number of NTNO, Atoms, PAOs, AuxFcns / Triples:     16   115.2    33.8  1023.5   303.6

Triples Correction (T)                     ...     -0.008169637
Final correlation energy                   ...     -0.261211790
E(CCSD)                                    ...    -56.473174367
E(CCSD(T))                                 ...    -56.481344004


Maximum memory used throughout the entire calculation: 854.6 MB


------------------------------------------------------------------------------- 
                                     TIMINGS                                   
------------------------------------------------------------------------------- 


Total execution time                   ...      561.975 sec

Localization of occupied MO's          ...        1.315 sec (  0.2%)
Fock Matrix Formation                  ...      364.894 sec ( 64.9%)
Global overlap, Fock, MKN matrices     ...        1.256 sec (  0.2%)
Differential overlap integrals         ...        0.782 sec (  0.1%)
Organizing maps                        ...        0.152 sec (  0.0%)
RI 3-index integral generations        ...       76.580 sec ( 13.6%)
RI-PNO integral transformation         ...       65.020 sec ( 11.6%)
Initial Guess                          ...        9.752 sec (  1.7%)
DIIS Solver                            ...        0.796 sec (  0.1%)
State Vector Update                    ...        0.002 sec (  0.0%)
Sigma-vector construction              ...       22.259 sec (  4.0%)
  <D|H|D>(0-ext)                       ...        0.018 sec (  0.1% of sigma)
  <D|H|D>(2-ext Fock)                  ...        0.002 sec (  0.0% of sigma)
  <D|H|D>(2-ext)                       ...        1.993 sec (  9.0% of sigma)
  <D|H|D>(4-ext)                       ...        4.827 sec ( 21.7% of sigma)
  <D|H|D>(4-ext-corr)                  ...       13.149 sec ( 59.1% of sigma)
  CCSD doubles correction              ...        0.003 sec (  0.0% of sigma)
  <S|H|S>                              ...        0.098 sec (  0.4% of sigma)
  <S|H|D>(1-ext)                       ...        0.008 sec (  0.0% of sigma)
  <S|H|D>(3-ext)                       ...        0.053 sec (  0.2% of sigma)
  Fock-dressing                        ...        0.987 sec (  4.4% of sigma)
  Singles amplitudes                   ...        0.023 sec (  0.1% of sigma)
  (ik|jl)-dressing                     ...        0.186 sec (  0.8% of sigma)
  (ij|ab),(ia|jb)-dressing             ...        0.646 sec (  2.9% of sigma)
  Pair energies                        ...        0.004 sec (  0.0% of sigma)
Total Time for computing (T)           ...       19.321 sec (  3.4% of ALL)


-------------------------   --------------------
FINAL SINGLE POINT ENERGY       -56.481344004137
-------------------------   --------------------


                            ***************************************
                            *     ORCA property calculations      *
                            ***************************************

                                    ---------------------
                                    Active property flags
                                    ---------------------
   (+) Dipole Moment


------------------------------------------------------------------------------
                       ORCA ELECTRIC PROPERTIES CALCULATION
------------------------------------------------------------------------------

Dipole Moment Calculation                       ... on
Quadrupole Moment Calculation                   ... off
Polarizability Calculation                      ... off
GBWName                                         ... DLPNO_CP33_job5.gbw
Electron density file                           ... DLPNO_CP33_job5.scfp
The origin for moment calculation is the CENTER OF MASS  = (-1.058857,  0.496740 -3.626684)

-------------
DIPOLE MOMENT
-------------
                                X             Y             Z
Electronic contribution:     -0.21038       0.03437       0.11529
Nuclear contribution   :      0.74768      -0.12212      -0.42500
                        -----------------------------------------
Total Dipole Moment    :      0.53730      -0.08776      -0.30971
                        -----------------------------------------
Magnitude (a.u.)       :      0.62635
Magnitude (Debye)      :      1.59205



--------------------
Rotational spectrum 
--------------------
 
Rotational constants in cm-1:     9.973899     9.868273     6.249313 
Rotational constants in MHz : 299009.966176 295843.385118 187349.696259 

 Dipole components along the rotational axes: 
x,y,z [a.u.] :    -0.006252     0.001608    -0.626314 
x,y,z [Debye]:    -0.015892     0.004087    -1.591964 

 

Timings for individual modules:

Sum of individual times         ...     2226.100 sec (=  37.102 min)
GTO integral calculation        ...        2.784 sec (=   0.046 min)   0.1 %
SCF iterations                  ...     1656.518 sec (=  27.609 min)  74.4 %
MDCI module                     ...      566.798 sec (=   9.447 min)  25.5 %

Energy for            dimer from job 1  =   -972.700178803
Energy for         fragment from job 2  =   -916.195399487
Energy for         fragment from job 3  =    -56.480419420
Energy for            ghost from job 4  =   -916.196832742
Energy for            ghost from job 5  =    -56.481344004


Energy for fragment            dimer:   -972.700178803 Eh
Energy for fragment         fragment:   -972.675818907 Eh   15.286 kcal/mol
Energy for fragment            ghost:   -972.678176747 Eh   13.806 kcal/mol

----------------------------
REACTION ENERGIES (kcal/mol)  15.286  13.806 
----------------------------

                             ****ORCA TERMINATED NORMALLY****
TOTAL RUN TIME: 0 days 10 hours 12 minutes 31 seconds 539 msec
