 Entering Gaussian System, Link 0=g16
 Input=CP_grain_mol30.com
 Output=CP_grain_mol30.log
 Initial command:
 /home/spantaleone/g16/l1.exe "/scratch/cnt0027/pag0797/spantaleone/GAUSSIAN/gauss_scratch/CP_grain_mol30/Gau-21218.inp" -scrdir="/scratch/cnt0027/pag0797/spantaleone/GAUSSIAN/gauss_scratch/CP_grain_mol30/"
 Entering Link 1 = /home/spantaleone/g16/l1.exe PID=     21219.
  
 Copyright (c) 1988-2017, Gaussian, Inc.  All Rights Reserved.
  
 This is part of the Gaussian(R) 16 program.  It is based on
 the Gaussian(R) 09 system (copyright 2009, Gaussian, Inc.),
 the Gaussian(R) 03 system (copyright 2003, Gaussian, Inc.),
 the Gaussian(R) 98 system (copyright 1998, Gaussian, Inc.),
 the Gaussian(R) 94 system (copyright 1995, Gaussian, Inc.),
 the Gaussian 92(TM) system (copyright 1992, Gaussian, Inc.),
 the Gaussian 90(TM) system (copyright 1990, Gaussian, Inc.),
 the Gaussian 88(TM) system (copyright 1988, Gaussian, Inc.),
 the Gaussian 86(TM) system (copyright 1986, Carnegie Mellon
 University), and the Gaussian 82(TM) system (copyright 1983,
 Carnegie Mellon University). Gaussian is a federally registered
 trademark of Gaussian, Inc.
  
 This software contains proprietary and confidential information,
 including trade secrets, belonging to Gaussian, Inc.
  
 This software is provided under written license and may be
 used, copied, transmitted, or stored only in accord with that
 written license.
  
 The following legend is applicable only to US Government
 contracts under FAR:
  
                    RESTRICTED RIGHTS LEGEND
  
 Use, reproduction and disclosure by the US Government is
 subject to restrictions as set forth in subparagraphs (a)
 and (c) of the Commercial Computer Software - Restricted
 Rights clause in FAR 52.227-19.
  
 Gaussian, Inc.
 340 Quinnipiac St., Bldg. 40, Wallingford CT 06492
  
  
 ---------------------------------------------------------------
 Warning -- This program may not be used in any manner that
 competes with the business of Gaussian, Inc. or will provide
 assistance to any competitor of Gaussian, Inc.  The licensee
 of this program is prohibited from giving any competitor of
 Gaussian, Inc. access to this program.  By using this program,
 the user acknowledges that Gaussian, Inc. is engaged in the
 business of creating and licensing software in the field of
 computational chemistry and represents and warrants to the
 licensee that it is not a competitor of Gaussian, Inc. and that
 it will not use this program in any manner prohibited above.
 ---------------------------------------------------------------
  

 Cite this work as:
 Gaussian 16, Revision B.01,
 M. J. Frisch, G. W. Trucks, H. B. Schlegel, G. E. Scuseria, 
 M. A. Robb, J. R. Cheeseman, G. Scalmani, V. Barone, 
 G. A. Petersson, H. Nakatsuji, X. Li, M. Caricato, A. V. Marenich, 
 J. Bloino, B. G. Janesko, R. Gomperts, B. Mennucci, H. P. Hratchian, 
 J. V. Ortiz, A. F. Izmaylov, J. L. Sonnenberg, D. Williams-Young, 
 F. Ding, F. Lipparini, F. Egidi, J. Goings, B. Peng, A. Petrone, 
 T. Henderson, D. Ranasinghe, V. G. Zakrzewski, J. Gao, N. Rega, 
 G. Zheng, W. Liang, M. Hada, M. Ehara, K. Toyota, R. Fukuda, 
 J. Hasegawa, M. Ishida, T. Nakajima, Y. Honda, O. Kitao, H. Nakai, 
 T. Vreven, K. Throssell, J. A. Montgomery, Jr., J. E. Peralta, 
 F. Ogliaro, M. J. Bearpark, J. J. Heyd, E. N. Brothers, K. N. Kudin, 
 V. N. Staroverov, T. A. Keith, R. Kobayashi, J. Normand, 
 K. Raghavachari, A. P. Rendell, J. C. Burant, S. S. Iyengar, 
 J. Tomasi, M. Cossi, J. M. Millam, M. Klene, C. Adamo, R. Cammi, 
 J. W. Ochterski, R. L. Martin, K. Morokuma, O. Farkas, 
 J. B. Foresman, and D. J. Fox, Gaussian, Inc., Wallingford CT, 2016.
 
 ******************************************
 Gaussian 16:  ES64L-G16RevB.01 20-Dec-2017
                23-Jan-2021 
 ******************************************
 %nosave
 %nproc=24
 Will use up to   24 processors via shared memory.
 %mem=24gb
 %chk=input
 -----------------------------------
 #P B97D3/aug-cc-pvtz Counterpoise=2
 -----------------------------------
 1/38=1,62=2,172=1/1;
 2/12=2,17=6,18=5,40=1/2;
 1/38=1,53=2,62=2,63=1/22;
 3/5=16,6=1,7=10,11=2,25=1,30=1,74=-59/1,2,3;
 4//1;
 5/5=2,38=5/2;
 6/7=2,8=2,9=2,10=2,28=1/1;
 1/53=2,62=2,63=1/22;
 3/5=7,6=11,7=10,11=2,25=1,30=1,74=-59,82=7/1,2,3;
 4//1;
 5/5=2,38=5/2;
 6/7=2,8=2,9=2,10=2,28=1/1;
 1/53=2,62=2,63=1/22(-4);
 99/5=1,9=1/99;
 Leave Link    1 at Sat Jan 23 22:50:07 2021, MaxMem=  3221225472 cpu:               1.3 elap:               0.1
 (Enter /home/spantaleone/g16/l101.exe)
 -----
 Title
 -----
 Symbolic Z-matrix:
 Charge =  0 Multiplicity = 1 in supermolecule
 Charge =  0 Multiplicity = 1 in fragment      1.
 Charge =  0 Multiplicity = 1 in fragment      2.
 H(Fragment=1)         9.75682  -3.33984   2.09159 
 O(Fragment=1)         9.44935  -3.12083   1.18113 
 H(Fragment=1)         10.23067  -2.9291    0.64174 
 H(Fragment=1)         6.74931  -3.53232   0.26282 
 O(Fragment=1)         7.30907  -4.30327   0.05173 
 H(Fragment=1)         8.17118  -4.02663   0.44853 
 H(Fragment=1)         7.6544   -4.03015  -1.65506 
 O(Fragment=1)         7.81384  -4.03957  -2.62948 
 H(Fragment=1)         7.0146   -3.6029   -2.98764 
 H(Fragment=1)         4.3526   -7.70422  -1.06079 
 O(Fragment=1)         4.75021  -6.99121  -0.53048 
 H(Fragment=1)         5.2805   -6.51808  -1.20895 
 H(Fragment=1)         6.94957  -5.59968  -2.77771 
 O(Fragment=1)         6.2012   -6.23469  -2.7724 
 H(Fragment=1)         6.56524  -7.15834  -2.76055 
 H(Fragment=1)         6.50143  -5.41696   1.15535 
 O(Fragment=1)         6.01098  -6.06879   1.70743 
 H(Fragment=1)         5.4711   -6.53203   1.0308 
 H(Fragment=1)         7.08275  -8.84271  -1.57328 
 O(Fragment=1)         6.81604  -8.83159  -2.53049 
 H(Fragment=1)         5.9086   -9.16733  -2.54887 
 H(Fragment=1)         7.31229  -5.83438   3.21976 
 O(Fragment=1)         7.72271  -5.4467    4.01119 
 H(Fragment=1)         7.20165  -4.62719   4.15353 
 N(Fragment=2)         7.79235  -8.58635   0.1187 
 H(Fragment=2)         8.76759  -8.31967   0.01805 
 H(Fragment=2)         7.77306  -9.39426   0.73395 
 H(Fragment=2)         7.32207  -7.82642   0.60778 
 
 ITRead=  0  0  0  0  0  0  0  0  0  0  0  0  0  0  0  0  0  0  0  0
 ITRead=  0  0  0  0  0  0  0  0
 MicOpt= -1 -1 -1 -1 -1 -1 -1 -1 -1 -1 -1 -1 -1 -1 -1 -1 -1 -1 -1 -1
 MicOpt= -1 -1 -1 -1 -1 -1 -1 -1
 NAtoms=     28 NQM=       28 NQMF=       0 NMMI=      0 NMMIF=      0
                NMic=       0 NMicF=      0.
                    Isotopes and Nuclear Properties:
 (Nuclear quadrupole moments (NQMom) in fm**2, nuclear magnetic moments (NMagM)
  in nuclear magnetons)

  Atom         1           2           3           4           5           6           7           8           9          10
 IAtWgt=           1          16           1           1          16           1           1          16           1           1
 AtmWgt=   1.0078250  15.9949146   1.0078250   1.0078250  15.9949146   1.0078250   1.0078250  15.9949146   1.0078250   1.0078250
 NucSpn=           1           0           1           1           0           1           1           0           1           1
 AtZEff=  -0.0000000  -0.0000000  -0.0000000  -0.0000000  -0.0000000  -0.0000000  -0.0000000  -0.0000000  -0.0000000  -0.0000000
 NQMom=    0.0000000   0.0000000   0.0000000   0.0000000   0.0000000   0.0000000   0.0000000   0.0000000   0.0000000   0.0000000
 NMagM=    2.7928460   0.0000000   2.7928460   2.7928460   0.0000000   2.7928460   2.7928460   0.0000000   2.7928460   2.7928460
 AtZNuc=   1.0000000   8.0000000   1.0000000   1.0000000   8.0000000   1.0000000   1.0000000   8.0000000   1.0000000   1.0000000

  Atom        11          12          13          14          15          16          17          18          19          20
 IAtWgt=          16           1           1          16           1           1          16           1           1          16
 AtmWgt=  15.9949146   1.0078250   1.0078250  15.9949146   1.0078250   1.0078250  15.9949146   1.0078250   1.0078250  15.9949146
 NucSpn=           0           1           1           0           1           1           0           1           1           0
 AtZEff=  -0.0000000  -0.0000000  -0.0000000  -0.0000000  -0.0000000  -0.0000000  -0.0000000  -0.0000000  -0.0000000  -0.0000000
 NQMom=    0.0000000   0.0000000   0.0000000   0.0000000   0.0000000   0.0000000   0.0000000   0.0000000   0.0000000   0.0000000
 NMagM=    0.0000000   2.7928460   2.7928460   0.0000000   2.7928460   2.7928460   0.0000000   2.7928460   2.7928460   0.0000000
 AtZNuc=   8.0000000   1.0000000   1.0000000   8.0000000   1.0000000   1.0000000   8.0000000   1.0000000   1.0000000   8.0000000

  Atom        21          22          23          24          25          26          27          28
 IAtWgt=           1           1          16           1          14           1           1           1
 AtmWgt=   1.0078250   1.0078250  15.9949146   1.0078250  14.0030740   1.0078250   1.0078250   1.0078250
 NucSpn=           1           1           0           1           2           1           1           1
 AtZEff=  -0.0000000  -0.0000000  -0.0000000  -0.0000000  -0.0000000  -0.0000000  -0.0000000  -0.0000000
 NQMom=    0.0000000   0.0000000   0.0000000   0.0000000   2.0440000   0.0000000   0.0000000   0.0000000
 NMagM=    2.7928460   2.7928460   0.0000000   2.7928460   0.4037610   2.7928460   2.7928460   2.7928460
 AtZNuc=   1.0000000   1.0000000   8.0000000   1.0000000   7.0000000   1.0000000   1.0000000   1.0000000
 Leave Link  101 at Sat Jan 23 22:50:07 2021, MaxMem=  3221225472 cpu:               4.9 elap:               0.2
 (Enter /home/spantaleone/g16/l202.exe)
                          Input orientation:                          
 ---------------------------------------------------------------------
 Center     Atomic      Atomic             Coordinates (Angstroms)
 Number     Number       Type             X           Y           Z
 ---------------------------------------------------------------------
      1          1           0        9.756822   -3.339844    2.091594
      2          8           0        9.449352   -3.120829    1.181133
      3          1           0       10.230666   -2.929102    0.641742
      4          1           0        6.749307   -3.532317    0.262820
      5          8           0        7.309074   -4.303267    0.051731
      6          1           0        8.171178   -4.026634    0.448534
      7          1           0        7.654404   -4.030149   -1.655055
      8          8           0        7.813838   -4.039572   -2.629484
      9          1           0        7.014602   -3.602897   -2.987643
     10          1           0        4.352597   -7.704217   -1.060786
     11          8           0        4.750212   -6.991209   -0.530476
     12          1           0        5.280497   -6.518083   -1.208954
     13          1           0        6.949565   -5.599678   -2.777707
     14          8           0        6.201196   -6.234694   -2.772396
     15          1           0        6.565237   -7.158337   -2.760554
     16          1           0        6.501430   -5.416963    1.155345
     17          8           0        6.010978   -6.068787    1.707432
     18          1           0        5.471095   -6.532030    1.030800
     19          1           0        7.082753   -8.842707   -1.573284
     20          8           0        6.816043   -8.831590   -2.530489
     21          1           0        5.908595   -9.167328   -2.548874
     22          1           0        7.312286   -5.834378    3.219757
     23          8           0        7.722715   -5.446700    4.011191
     24          1           0        7.201648   -4.627189    4.153529
     25          7           0        7.792350   -8.586354    0.118695
     26          1           0        8.767593   -8.319668    0.018049
     27          1           0        7.773061   -9.394263    0.733946
     28          1           0        7.322073   -7.826418    0.607778
 ---------------------------------------------------------------------
                    Distance matrix (angstroms):
                    1          2          3          4          5
     1  H    0.000000
     2  O    0.985619   0.000000
     3  H    1.579654   0.968583   0.000000
     4  H    3.525139   2.881469   3.553493   0.000000
     5  O    3.328768   2.693418   3.282094   0.975839   0.000000
     6  H    2.384448   1.729426   2.341665   1.516758   0.988535
     7  H    4.351329   3.477451   3.622804   2.178367   1.762658
     8  O    5.152998   4.247328   4.216055   3.123453   2.741028
     9  H    5.778202   4.851710   4.895866   3.262035   3.132894
    10  H    7.628296   7.211835   7.762217   4.990080   4.641650
    11  O    6.728585   6.323873   6.921718   4.073037   3.756564
    12  H    6.405646   5.884998   6.388273   3.638450   3.257278
    13  H    6.057857   5.297739   5.439690   3.682240   3.132993
    14  O    6.684387   5.989747   6.230562   4.100708   3.596317
    15  H    6.950571   6.336915   6.549612   4.724690   4.075986
    16  H    3.973482   3.736729   4.512255   2.099984   1.763681
    17  O    4.650383   4.559590   5.366478   3.010932   2.746536
    18  H    5.448192   5.242654   5.982138   3.349910   3.050267
    19  H    7.131863   6.776982   7.055949   5.628739   4.826843
    20  O    7.757004   7.302277   7.520776   5.990770   5.236091
    21  H    8.384651   7.937888   8.232605   6.353406   5.690657
    22  H    3.670314   4.010784   4.858367   3.789447   3.518622
    23  O    3.501612   4.049714   4.897071   4.320031   4.141963
    24  H    3.526719   4.019506   4.938734   4.067060   4.115970
    25  N    5.939474   5.809165   6.182513   5.162558   4.310786
    26  H    5.484233   5.370799   5.620300   5.201165   4.273159
    27  H    6.514177   6.508909   6.917126   5.969292   5.157416
    28  H    5.315925   5.195827   5.696031   4.345844   3.566784
                    6          7          8          9         10
     6  H    0.000000
     7  H    2.166138   0.000000
     8  O    3.098718   0.987431   0.000000
     9  H    3.650279   1.538727   0.978642   0.000000
    10  H    5.512189   4.975325   5.279264   5.255461   0.000000
    11  O    4.631433   4.297311   4.743817   4.758759   0.973502
    12  H    4.160603   3.467601   3.818211   3.830034   1.513230
    13  H    3.791495   2.054402   1.789656   2.008840   3.757811
    14  O    4.373871   2.867104   2.727563   2.763027   2.916578
    15  H    4.762862   3.491987   3.361975   3.590912   2.843057
    16  H    2.284875   3.339304   4.236101   4.551761   3.841907
    17  O    3.228262   4.261832   5.116332   5.397370   3.617719
    18  H    3.729141   4.270839   5.009837   5.206738   2.645712
    19  H    5.335445   4.847080   4.971936   5.427768   3.002094
    20  O    5.813654   4.952077   4.895797   5.252394   3.082136
    21  H    6.366355   5.498852   5.470862   5.690225   2.603119
    22  H    3.418378   5.209230   6.138933   6.603025   5.529838
    23  O    3.861377   5.841030   6.788732   7.272187   6.494538
    24  H    3.876550   5.856713   6.835886   7.216682   6.691358
    25  N    4.587303   4.891239   5.312831   5.923603   3.741823
    26  H    4.355591   4.736923   5.122334   5.861322   4.586377
    27  H    5.389935   5.873255   6.323531   6.925706   4.216265
    28  H    3.896755   4.431988   5.006186   5.555153   3.408347
                   11         12         13         14         15
    11  O    0.000000
    12  H    0.982539   0.000000
    13  H    3.438540   2.467842   0.000000
    14  O    2.775585   1.836395   0.981494   0.000000
    15  H    2.880190   2.113751   1.605435   0.992866   0.000000
    16  H    2.896033   2.879766   3.962715   4.023180   4.286108
    17  O    2.729217   3.039865   4.606244   4.486933   4.632194
    18  H    1.779916   2.247892   4.190451   3.884039   3.995469
    19  H    3.155351   2.963906   3.462024   3.002789   2.124744
    20  O    3.413900   3.075170   3.244102   2.679631   1.707515
    21  H    3.186107   3.034533   3.723454   2.955659   2.124154
    22  H    4.686868   4.920274   6.013005   6.107428   6.170500
    23  O    5.643405   5.861928   6.834493   6.996643   7.079971
    24  H    5.791203   6.001877   7.003664   7.180071   7.390282
    25  N    3.495785   3.514229   4.244958   4.052220   3.440220
    26  H    4.266736   4.112309   4.303466   4.326672   3.730911
    27  H    4.063379   4.273189   5.235335   4.974743   4.320849
    28  H    2.933882   3.029899   4.069231   3.900709   3.516361
                   16         17         18         19         20
    16  H    0.000000
    17  O    0.984996   0.000000
    18  H    1.523311   0.981783   0.000000
    19  H    4.418040   4.427915   3.836395   0.000000
    20  O    5.034286   5.122615   4.447431   0.993730   0.000000
    21  H    5.304520   5.265698   4.466572   1.560705   0.967740
    22  H    2.256883   2.008850   2.944187   5.663565   6.503450
    23  O    3.106168   2.936723   3.889790   6.567250   7.421126
    24  H    3.178546   3.078846   4.046563   7.112040   7.905806
    25  N    3.575774   3.469224   3.231162   1.852576   2.833989
    26  H    3.854171   3.939468   3.884355   2.375836   3.250486
    27  H    4.196849   3.887339   3.685044   2.470637   3.448046
    28  H    2.603605   2.453054   2.297935   2.418088   3.333940
                   21         22         23         24         25
    21  H    0.000000
    22  H    6.808525   0.000000
    23  O    7.756839   0.972170   0.000000
    24  H    8.197991   1.530188   0.981514   0.000000
    25  N    3.316924   4.173778   5.001380   5.683643   0.000000
    26  H    3.934653   4.306451   5.029006   5.760970   1.016046
    27  H    3.782148   4.366274   5.130899   5.894494   1.015688
    28  H    3.709503   3.284928   4.172145   4.777229   1.018757
                   26         27         28
    26  H    0.000000
    27  H    1.629833   0.000000
    28  H    1.637255   1.636290   0.000000
 Stoichiometry    H19NO8
 Framework group  C1[X(H19NO8)]
 Deg. of freedom    78
 Full point group                 C1      NOp   1
 Largest Abelian subgroup         C1      NOp   1
 Largest concise Abelian subgroup C1      NOp   1
                         Standard orientation:                         
 ---------------------------------------------------------------------
 Center     Atomic      Atomic             Coordinates (Angstroms)
 Number     Number       Type             X           Y           Z
 ---------------------------------------------------------------------
      1          1           0       -4.032191    1.098451    1.173608
      2          8           0       -3.370558    1.764930    0.874455
      3          1           0       -3.323649    2.459874    1.547512
      4          1           0       -1.574002    1.352240   -1.340254
      5          8           0       -1.154315    1.089873   -0.499249
      6          1           0       -1.889127    1.257570    0.140384
      7          1           0       -0.131786    2.486413   -0.165968
      8          8           0        0.558513    3.156067    0.057796
      9          1           0        0.836695    3.487372   -0.820038
     10          1           0        2.578070   -1.391273   -1.706777
     11          8           0        1.642568   -1.123429   -1.678447
     12          1           0        1.714592   -0.204509   -1.338181
     13          1           0        1.838960    1.913011   -0.076878
     14          8           0        2.438024    1.258958   -0.497195
     15          1           0        2.839374    0.690914    0.211344
     16          1           0       -1.092670   -0.635047   -0.861770
     17          8           0       -0.979992   -1.588273   -1.082861
     18          1           0       -0.030808   -1.621038   -1.331609
     19          1           0        2.737675   -1.142291    1.280713
     20          8           0        3.540209   -0.582465    1.107416
     21          1           0        4.037450   -1.050467    0.421671
     22          1           0       -2.674630   -2.059703   -0.112586
     23          8           0       -3.625795   -2.189787    0.040638
     24          1           0       -4.033704   -1.837860   -0.779805
     25          7           0        1.084975   -1.872226    1.690367
     26          1           0        0.695291   -1.357888    2.475194
     27          1           0        1.087598   -2.852390    1.956626
     28          1           0        0.432792   -1.774787    0.913819
 ---------------------------------------------------------------------
 Rotational constants (GHZ):           0.7460917           0.4741108           0.3604366
 Leave Link  202 at Sat Jan 23 22:50:07 2021, MaxMem=  3221225472 cpu:               1.0 elap:               0.1
 (Enter /home/spantaleone/g16/l122.exe)
 Counterpoise: doing full-system calculation.
 Leave Link  122 at Sat Jan 23 22:50:07 2021, MaxMem=  3221225472 cpu:               0.0 elap:               0.0
 (Enter /home/spantaleone/g16/l301.exe)
 Standard basis: Aug-CC-pVTZ (5D, 7F)
 Ernie: Thresh=  0.10000D-02 Tol=  0.10000D-05 Strict=F.
 Ernie:  27 primitive shells out of 479 were deleted.
 There are   970 symmetry adapted cartesian basis functions of A   symmetry.
 There are   851 symmetry adapted basis functions of A   symmetry.
   851 basis functions,  1161 primitive gaussians,   970 cartesian basis functions
    45 alpha electrons       45 beta electrons
       nuclear repulsion energy       559.3074721756 Hartrees.
 IExCor= 3630 DFT=T Ex+Corr=B97D3 ExCW=0 ScaHFX=  0.000000
 ScaDFX=  1.000000  1.000000  1.000000  1.000000 ScalE2=  1.000000  1.000000
 IRadAn=      5 IRanWt=     -1 IRanGd=            0 ICorTp=0 IEmpDi=141
 NAtoms=   28 NActive=   28 NUniq=   28 SFac= 1.00D+00 NAtFMM=   60 NAOKFM=F Big=F
 Integral buffers will be    131072 words long.
 Raffenetti 2 integral format.
 Two-electron integral symmetry is turned on.
 R6Disp:  Grimme-D3(BJ) Dispersion energy=       -0.0399685853 Hartrees.
 Nuclear repulsion after empirical dispersion term =      559.2675035903 Hartrees.
 Leave Link  301 at Sat Jan 23 22:50:08 2021, MaxMem=  3221225472 cpu:               3.5 elap:               0.2
 (Enter /home/spantaleone/g16/l302.exe)
 NPDir=0 NMtPBC=     1 NCelOv=     1 NCel=       1 NClECP=     1 NCelD=      1
         NCelK=      1 NCelE2=     1 NClLst=     1 CellRange=     0.0.
 One-electron integrals computed using PRISM.
 One-electron integral symmetry used in STVInt
 NBasis=   851 RedAO= T EigKep=  2.46D-05  NBF=   851
 NBsUse=   851 1.00D-06 EigRej= -1.00D+00 NBFU=   851
 Precomputing XC quadrature grid using
 IXCGrd= 4 IRadAn=           5 IRanWt=          -1 IRanGd=           0 AccXCQ= 0.00D+00.
 Generated NRdTot=       0 NPtTot=           0 NUsed=           0 NTot=          32
 NSgBfM=   968   967   968   968   968 MxSgAt=    28 MxSgA2=    28.
 Leave Link  302 at Sat Jan 23 22:50:10 2021, MaxMem=  3221225472 cpu:              46.1 elap:               2.0
 (Enter /home/spantaleone/g16/l303.exe)
 DipDrv:  MaxL=1.
 Leave Link  303 at Sat Jan 23 22:50:10 2021, MaxMem=  3221225472 cpu:               4.1 elap:               0.3
 (Enter /home/spantaleone/g16/l401.exe)
 ExpMin= 2.53D-02 ExpMax= 1.53D+04 ExpMxC= 5.22D+02 IAcc=3 IRadAn=         5 AccDes= 0.00D+00
 Harris functional with IExCor= 3630 and IRadAn=       5 diagonalized for initial guess.
 HarFok:  IExCor= 3630 AccDes= 0.00D+00 IRadAn=         5 IDoV= 1 UseB2=F ITyADJ=14
 ICtDFT=  3500011 ScaDFX=  1.000000  1.000000  1.000000  1.000000
 FoFCou: FMM=F IPFlag=           0 FMFlag=      100000 FMFlg1=           0
         NFxFlg=           0 DoJE=T BraDBF=F KetDBF=T FulRan=T
         wScrn=  0.000000 ICntrl=       500 IOpCl=  0 I1Cent=   200000004 NGrid=           0
         NMat0=    1 NMatS0=      1 NMatT0=    0 NMatD0=    1 NMtDS0=    0 NMtDT0=    0
 Petite list used in FoFCou.
 Harris En= -668.382449129482    
 JPrj=0 DoOrth=F DoCkMO=F.
 Leave Link  401 at Sat Jan 23 22:50:16 2021, MaxMem=  3221225472 cpu:             141.8 elap:               6.0
 (Enter /home/spantaleone/g16/l502.exe)
 Integral symmetry usage will be decided dynamically.
 Closed shell SCF:
 Using DIIS extrapolation, IDIIS=  1040.
 NGot=  3221225472 LenX=  3219312446 LenY=  3218370576
 Requested convergence on RMS density matrix=1.00D-08 within 128 cycles.
 Requested convergence on MAX density matrix=1.00D-06.
 Requested convergence on             energy=1.00D-06.
 No special actions if energy rises.
 Fock matrices will be formed incrementally for  20 cycles.

 Cycle   1  Pass 1  IDiag  1:
 FoFJK:  IHMeth= 1 ICntrl=     500 DoSepK=F KAlg= 0 I1Cent=           0 FoldK=F
 IRaf= 900000000 NMat=       1 IRICut=       1 DoRegI=T DoRafI=F ISym2E= 0 IDoP0=0 IntGTp=1.
 FoFCou: FMM=F IPFlag=           0 FMFlag=      100000 FMFlg1=           0
         NFxFlg=           0 DoJE=T BraDBF=F KetDBF=F FulRan=T
         wScrn=  0.000000 ICntrl=       500 IOpCl=  0 I1Cent=           0 NGrid=           0
         NMat0=    1 NMatS0=      1 NMatT0=    0 NMatD0=    1 NMtDS0=    0 NMtDT0=    0
 Symmetry not used in FoFCou.
 E= -667.394822537811    
 DIIS: error= 1.82D-02 at cycle   1 NSaved=   1.
 NSaved= 1 IEnMin= 1 EnMin= -667.394822537811     IErMin= 1 ErrMin= 1.82D-02
 ErrMax= 1.82D-02  0.00D+00 EMaxC= 1.00D-01 BMatC= 9.08D-01 BMatP= 9.08D-01
 IDIUse=3 WtCom= 8.18D-01 WtEn= 1.82D-01
 Coeff-Com:  0.100D+01
 Coeff-En:   0.100D+01
 Coeff:      0.100D+01
 Gap=     0.085 Goal=   None    Shift=    0.000
 GapD=    0.085 DampG=0.500 DampE=0.500 DampFc=0.2500 IDamp=-1.
 Damping current iteration by 2.50D-01
 RMSDP=2.14D-03 MaxDP=1.72D-01              OVMax= 4.06D-01

 Cycle   2  Pass 1  IDiag  1:
 RMSU=  5.31D-04    CP:  9.87D-01
 E= -667.618998225972     Delta-E=       -0.224175688162 Rises=F Damp=T
 DIIS: error= 4.88D-03 at cycle   2 NSaved=   2.
 NSaved= 2 IEnMin= 2 EnMin= -667.618998225972     IErMin= 2 ErrMin= 4.88D-03
 ErrMax= 4.88D-03  0.00D+00 EMaxC= 1.00D-01 BMatC= 6.92D-02 BMatP= 9.08D-01
 IDIUse=3 WtCom= 9.51D-01 WtEn= 4.88D-02
 Coeff-Com: -0.339D+00 0.134D+01
 Coeff-En:   0.350D-01 0.965D+00
 Coeff:     -0.320D+00 0.132D+01
 Gap=     0.153 Goal=   None    Shift=    0.000
 RMSDP=3.82D-04 MaxDP=2.21D-02 DE=-2.24D-01 OVMax= 3.58D-01

 Cycle   3  Pass 1  IDiag  1:
 RMSU=  3.76D-04    CP:  9.78D-01  9.13D-01
 E= -668.032676768324     Delta-E=       -0.413678542352 Rises=F Damp=F
 DIIS: error= 3.33D-03 at cycle   3 NSaved=   3.
 NSaved= 3 IEnMin= 3 EnMin= -668.032676768324     IErMin= 3 ErrMin= 3.33D-03
 ErrMax= 3.33D-03  0.00D+00 EMaxC= 1.00D-01 BMatC= 1.36D-02 BMatP= 6.92D-02
 IDIUse=3 WtCom= 9.67D-01 WtEn= 3.33D-02
 Coeff-Com: -0.188D+00 0.707D+00 0.481D+00
 Coeff-En:   0.000D+00 0.000D+00 0.100D+01
 Coeff:     -0.182D+00 0.683D+00 0.499D+00
 Gap=     0.189 Goal=   None    Shift=    0.000
 RMSDP=1.17D-04 MaxDP=1.26D-02 DE=-4.14D-01 OVMax= 3.41D-02

 Cycle   4  Pass 1  IDiag  1:
 RMSU=  1.15D-04    CP:  9.78D-01  9.33D-01  9.43D-01
 E= -668.040831093287     Delta-E=       -0.008154324963 Rises=F Damp=F
 DIIS: error= 1.39D-03 at cycle   4 NSaved=   4.
 NSaved= 4 IEnMin= 4 EnMin= -668.040831093287     IErMin= 4 ErrMin= 1.39D-03
 ErrMax= 1.39D-03  0.00D+00 EMaxC= 1.00D-01 BMatC= 3.11D-03 BMatP= 1.36D-02
 IDIUse=3 WtCom= 9.86D-01 WtEn= 1.39D-02
 Coeff-Com: -0.283D-01 0.554D-01 0.314D+00 0.658D+00
 Coeff-En:   0.000D+00 0.000D+00 0.187D+00 0.813D+00
 Coeff:     -0.279D-01 0.546D-01 0.313D+00 0.661D+00
 Gap=     0.168 Goal=   None    Shift=    0.000
 RMSDP=6.30D-05 MaxDP=6.99D-03 DE=-8.15D-03 OVMax= 8.15D-03

 Cycle   5  Pass 1  IDiag  1:
 RMSU=  4.55D-05    CP:  9.78D-01  9.98D-01  9.72D-01  7.90D-01
 E= -668.042904429827     Delta-E=       -0.002073336540 Rises=F Damp=F
 DIIS: error= 2.51D-04 at cycle   5 NSaved=   5.
 NSaved= 5 IEnMin= 5 EnMin= -668.042904429827     IErMin= 5 ErrMin= 2.51D-04
 ErrMax= 2.51D-04  0.00D+00 EMaxC= 1.00D-01 BMatC= 1.21D-04 BMatP= 3.11D-03
 IDIUse=3 WtCom= 9.97D-01 WtEn= 2.51D-03
 Coeff-Com: -0.309D-02 0.459D-03 0.119D+00 0.280D+00 0.603D+00
 Coeff-En:   0.000D+00 0.000D+00 0.000D+00 0.000D+00 0.100D+01
 Coeff:     -0.308D-02 0.457D-03 0.119D+00 0.280D+00 0.604D+00
 Gap=     0.170 Goal=   None    Shift=    0.000
 RMSDP=1.09D-05 MaxDP=1.17D-03 DE=-2.07D-03 OVMax= 1.78D-03

 Cycle   6  Pass 1  IDiag  1:
 RMSU=  9.86D-06    CP:  9.78D-01  9.92D-01  9.74D-01  7.98D-01  9.38D-01
 E= -668.042996245694     Delta-E=       -0.000091815868 Rises=F Damp=F
 DIIS: error= 9.10D-05 at cycle   6 NSaved=   6.
 NSaved= 6 IEnMin= 6 EnMin= -668.042996245694     IErMin= 6 ErrMin= 9.10D-05
 ErrMax= 9.10D-05  0.00D+00 EMaxC= 1.00D-01 BMatC= 2.37D-05 BMatP= 1.21D-04
 IDIUse=1 WtCom= 1.00D+00 WtEn= 0.00D+00
 Coeff-Com:  0.124D-02-0.303D-02 0.472D-01 0.100D+00 0.329D+00 0.525D+00
 Coeff:      0.124D-02-0.303D-02 0.472D-01 0.100D+00 0.329D+00 0.525D+00
 Gap=     0.170 Goal=   None    Shift=    0.000
 RMSDP=4.62D-06 MaxDP=6.02D-04 DE=-9.18D-05 OVMax= 8.08D-04

 Cycle   7  Pass 1  IDiag  1:
 RMSU=  3.34D-06    CP:  9.78D-01  9.89D-01  9.74D-01  7.90D-01  9.40D-01
                    CP:  7.25D-01
 E= -668.043010534815     Delta-E=       -0.000014289120 Rises=F Damp=F
 DIIS: error= 4.25D-05 at cycle   7 NSaved=   7.
 NSaved= 7 IEnMin= 7 EnMin= -668.043010534815     IErMin= 7 ErrMin= 4.25D-05
 ErrMax= 4.25D-05  0.00D+00 EMaxC= 1.00D-01 BMatC= 4.15D-06 BMatP= 2.37D-05
 IDIUse=1 WtCom= 1.00D+00 WtEn= 0.00D+00
 Coeff-Com:  0.159D-02-0.187D-02 0.132D-01 0.182D-01 0.111D+00 0.330D+00
 Coeff-Com:  0.529D+00
 Coeff:      0.159D-02-0.187D-02 0.132D-01 0.182D-01 0.111D+00 0.330D+00
 Coeff:      0.529D+00
 Gap=     0.170 Goal=   None    Shift=    0.000
 RMSDP=1.66D-06 MaxDP=1.61D-04 DE=-1.43D-05 OVMax= 3.48D-04

 Cycle   8  Pass 1  IDiag  1:
 RMSU=  1.09D-06    CP:  9.78D-01  9.88D-01  9.75D-01  7.86D-01  9.38D-01
                    CP:  7.67D-01  7.29D-01
 E= -668.043013464951     Delta-E=       -0.000002930136 Rises=F Damp=F
 DIIS: error= 7.51D-06 at cycle   8 NSaved=   8.
 NSaved= 8 IEnMin= 8 EnMin= -668.043013464951     IErMin= 8 ErrMin= 7.51D-06
 ErrMax= 7.51D-06  0.00D+00 EMaxC= 1.00D-01 BMatC= 1.24D-07 BMatP= 4.15D-06
 IDIUse=1 WtCom= 1.00D+00 WtEn= 0.00D+00
 Coeff-Com:  0.770D-03-0.846D-03 0.522D-02 0.576D-02 0.411D-01 0.133D+00
 Coeff-Com:  0.249D+00 0.566D+00
 Coeff:      0.770D-03-0.846D-03 0.522D-02 0.576D-02 0.411D-01 0.133D+00
 Coeff:      0.249D+00 0.566D+00
 Gap=     0.170 Goal=   None    Shift=    0.000
 RMSDP=3.55D-07 MaxDP=3.85D-05 DE=-2.93D-06 OVMax= 7.70D-05

 Cycle   9  Pass 1  IDiag  1:
 RMSU=  3.09D-07    CP:  9.78D-01  9.88D-01  9.75D-01  7.85D-01  9.37D-01
                    CP:  7.69D-01  7.38D-01  8.91D-01
 E= -668.043013529096     Delta-E=       -0.000000064145 Rises=F Damp=F
 DIIS: error= 3.68D-06 at cycle   9 NSaved=   9.
 NSaved= 9 IEnMin= 9 EnMin= -668.043013529096     IErMin= 9 ErrMin= 3.68D-06
 ErrMax= 3.68D-06  0.00D+00 EMaxC= 1.00D-01 BMatC= 3.51D-08 BMatP= 1.24D-07
 IDIUse=1 WtCom= 1.00D+00 WtEn= 0.00D+00
 Coeff-Com:  0.257D-03-0.224D-03 0.144D-02 0.934D-03 0.944D-02 0.347D-01
 Coeff-Com:  0.781D-01 0.374D+00 0.501D+00
 Coeff:      0.257D-03-0.224D-03 0.144D-02 0.934D-03 0.944D-02 0.347D-01
 Coeff:      0.781D-01 0.374D+00 0.501D+00
 Gap=     0.170 Goal=   None    Shift=    0.000
 RMSDP=1.54D-07 MaxDP=2.28D-05 DE=-6.41D-08 OVMax= 3.08D-05

 Cycle  10  Pass 1  IDiag  1:
 RMSU=  9.15D-08    CP:  9.78D-01  9.88D-01  9.75D-01  7.85D-01  9.37D-01
                    CP:  7.68D-01  7.44D-01  9.33D-01  6.64D-01
 E= -668.043013554087     Delta-E=       -0.000000024992 Rises=F Damp=F
 DIIS: error= 5.68D-07 at cycle  10 NSaved=  10.
 NSaved=10 IEnMin=10 EnMin= -668.043013554087     IErMin=10 ErrMin= 5.68D-07
 ErrMax= 5.68D-07  0.00D+00 EMaxC= 1.00D-01 BMatC= 8.31D-10 BMatP= 3.51D-08
 IDIUse=1 WtCom= 1.00D+00 WtEn= 0.00D+00
 Coeff-Com:  0.393D-04-0.289D-04 0.142D-03-0.451D-04 0.179D-03 0.222D-02
 Coeff-Com:  0.934D-02 0.956D-01 0.203D+00 0.690D+00
 Coeff:      0.393D-04-0.289D-04 0.142D-03-0.451D-04 0.179D-03 0.222D-02
 Coeff:      0.934D-02 0.956D-01 0.203D+00 0.690D+00
 Gap=     0.170 Goal=   None    Shift=    0.000
 RMSDP=3.02D-08 MaxDP=3.55D-06 DE=-2.50D-08 OVMax= 5.16D-06

 Cycle  11  Pass 1  IDiag  1:
 RMSU=  2.56D-08    CP:  9.78D-01  9.88D-01  9.75D-01  7.85D-01  9.37D-01
                    CP:  7.68D-01  7.44D-01  9.35D-01  7.00D-01  9.15D-01
 E= -668.043013554638     Delta-E=       -0.000000000550 Rises=F Damp=F
 DIIS: error= 1.80D-07 at cycle  11 NSaved=  11.
 NSaved=11 IEnMin=11 EnMin= -668.043013554638     IErMin=11 ErrMin= 1.80D-07
 ErrMax= 1.80D-07  0.00D+00 EMaxC= 1.00D-01 BMatC= 1.20D-10 BMatP= 8.31D-10
 IDIUse=1 WtCom= 1.00D+00 WtEn= 0.00D+00
 Coeff-Com:  0.133D-04-0.857D-05 0.296D-04-0.548D-04-0.279D-03 0.742D-04
 Coeff-Com:  0.272D-02 0.422D-01 0.100D+00 0.399D+00 0.456D+00
 Coeff:      0.133D-04-0.857D-05 0.296D-04-0.548D-04-0.279D-03 0.742D-04
 Coeff:      0.272D-02 0.422D-01 0.100D+00 0.399D+00 0.456D+00
 Gap=     0.170 Goal=   None    Shift=    0.000
 RMSDP=1.03D-08 MaxDP=9.46D-07 DE=-5.50D-10 OVMax= 1.76D-06

 Cycle  12  Pass 1  IDiag  1:
 RMSU=  9.23D-09    CP:  9.78D-01  9.88D-01  9.75D-01  7.85D-01  9.37D-01
                    CP:  7.68D-01  7.43D-01  9.35D-01  7.03D-01  9.48D-01
                    CP:  8.76D-01
 E= -668.043013554722     Delta-E=       -0.000000000084 Rises=F Damp=F
 DIIS: error= 5.67D-08 at cycle  12 NSaved=  12.
 NSaved=12 IEnMin=12 EnMin= -668.043013554722     IErMin=12 ErrMin= 5.67D-08
 ErrMax= 5.67D-08  0.00D+00 EMaxC= 1.00D-01 BMatC= 1.17D-11 BMatP= 1.20D-10
 IDIUse=1 WtCom= 1.00D+00 WtEn= 0.00D+00
 Coeff-Com: -0.985D-06 0.162D-05-0.163D-04-0.235D-04-0.212D-03-0.352D-03
 Coeff-Com: -0.299D-03 0.314D-02 0.122D-01 0.720D-01 0.253D+00 0.661D+00
 Coeff:     -0.985D-06 0.162D-05-0.163D-04-0.235D-04-0.212D-03-0.352D-03
 Coeff:     -0.299D-03 0.314D-02 0.122D-01 0.720D-01 0.253D+00 0.661D+00
 Gap=     0.170 Goal=   None    Shift=    0.000
 RMSDP=2.97D-09 MaxDP=2.70D-07 DE=-8.44D-11 OVMax= 5.37D-07

 SCF Done:  E(RB97D3) =  -668.043013555     A.U. after   12 cycles
            NFock= 12  Conv=0.30D-08     -V/T= 2.0056
 KE= 6.643318744334D+02 PE=-2.696609613173D+03 EE= 8.049672215946D+02
 Leave Link  502 at Sat Jan 23 22:55:44 2021, MaxMem=  3221225472 cpu:            7859.4 elap:             327.8
 (Enter /home/spantaleone/g16/l601.exe)
 Copying SCF densities to generalized density rwf, IOpCl= 0 IROHF=0.

 **********************************************************************

            Population analysis using the SCF Density.

 **********************************************************************

 Orbital symmetries:
       Occupied  (A) (A) (A) (A) (A) (A) (A) (A) (A) (A) (A) (A)
                 (A) (A) (A) (A) (A) (A) (A) (A) (A) (A) (A) (A)
                 (A) (A) (A) (A) (A) (A) (A) (A) (A) (A) (A) (A)
                 (A) (A) (A) (A) (A) (A) (A) (A) (A)
       Virtual   (A) (A) (A) (A) (A) (A) (A) (A) (A) (A) (A) (A)
                 (A) (A) (A) (A) (A) (A) (A) (A) (A) (A) (A) (A)
                 (A) (A) (A) (A) (A) (A) (A) (A) (A) (A) (A) (A)
                 (A) (A) (A) (A) (A) (A) (A) (A) (A) (A) (A) (A)
                 (A) (A) (A) (A) (A) (A) (A) (A) (A) (A) (A) (A)
                 (A) (A) (A) (A) (A) (A) (A) (A) (A) (A) (A) (A)
                 (A) (A) (A) (A) (A) (A) (A) (A) (A) (A) (A) (A)
                 (A) (A) (A) (A) (A) (A) (A) (A) (A) (A) (A) (A)
                 (A) (A) (A) (A) (A) (A) (A) (A) (A) (A) (A) (A)
                 (A) (A) (A) (A) (A) (A) (A) (A) (A) (A) (A) (A)
                 (A) (A) (A) (A) (A) (A) (A) (A) (A) (A) (A) (A)
                 (A) (A) (A) (A) (A) (A) (A) (A) (A) (A) (A) (A)
                 (A) (A) (A) (A) (A) (A) (A) (A) (A) (A) (A) (A)
                 (A) (A) (A) (A) (A) (A) (A) (A) (A) (A) (A) (A)
                 (A) (A) (A) (A) (A) (A) (A) (A) (A) (A) (A) (A)
                 (A) (A) (A) (A) (A) (A) (A) (A) (A) (A) (A) (A)
                 (A) (A) (A) (A) (A) (A) (A) (A) (A) (A) (A) (A)
                 (A) (A) (A) (A) (A) (A) (A) (A) (A) (A) (A) (A)
                 (A) (A) (A) (A) (A) (A) (A) (A) (A) (A) (A) (A)
                 (A) (A) (A) (A) (A) (A) (A) (A) (A) (A) (A) (A)
                 (A) (A) (A) (A) (A) (A) (A) (A) (A) (A) (A) (A)
                 (A) (A) (A) (A) (A) (A) (A) (A) (A) (A) (A) (A)
                 (A) (A) (A) (A) (A) (A) (A) (A) (A) (A) (A) (A)
                 (A) (A) (A) (A) (A) (A) (A) (A) (A) (A) (A) (A)
                 (A) (A) (A) (A) (A) (A) (A) (A) (A) (A) (A) (A)
                 (A) (A) (A) (A) (A) (A) (A) (A) (A) (A) (A) (A)
                 (A) (A) (A) (A) (A) (A) (A) (A) (A) (A) (A) (A)
                 (A) (A) (A) (A) (A) (A) (A) (A) (A) (A) (A) (A)
                 (A) (A) (A) (A) (A) (A) (A) (A) (A) (A) (A) (A)
                 (A) (A) (A) (A) (A) (A) (A) (A) (A) (A) (A) (A)
                 (A) (A) (A) (A) (A) (A) (A) (A) (A) (A) (A) (A)
                 (A) (A) (A) (A) (A) (A) (A) (A) (A) (A) (A) (A)
                 (A) (A) (A) (A) (A) (A) (A) (A) (A) (A) (A) (A)
                 (A) (A) (A) (A) (A) (A) (A) (A) (A) (A) (A) (A)
                 (A) (A) (A) (A) (A) (A) (A) (A) (A) (A) (A) (A)
                 (A) (A) (A) (A) (A) (A) (A) (A) (A) (A) (A) (A)
                 (A) (A) (A) (A) (A) (A) (A) (A) (A) (A) (A) (A)
                 (A) (A) (A) (A) (A) (A) (A) (A) (A) (A) (A) (A)
                 (A) (A) (A) (A) (A) (A) (A) (A) (A) (A) (A) (A)
                 (A) (A) (A) (A) (A) (A) (A) (A) (A) (A) (A) (A)
                 (A) (A) (A) (A) (A) (A) (A) (A) (A) (A) (A) (A)
                 (A) (A) (A) (A) (A) (A) (A) (A) (A) (A) (A) (A)
                 (A) (A) (A) (A) (A) (A) (A) (A) (A) (A) (A) (A)
                 (A) (A) (A) (A) (A) (A) (A) (A) (A) (A) (A) (A)
                 (A) (A) (A) (A) (A) (A) (A) (A) (A) (A) (A) (A)
                 (A) (A) (A) (A) (A) (A) (A) (A) (A) (A) (A) (A)
                 (A) (A) (A) (A) (A) (A) (A) (A) (A) (A) (A) (A)
                 (A) (A) (A) (A) (A) (A) (A) (A) (A) (A) (A) (A)
                 (A) (A) (A) (A) (A) (A) (A) (A) (A) (A) (A) (A)
                 (A) (A) (A) (A) (A) (A) (A) (A) (A) (A) (A) (A)
                 (A) (A) (A) (A) (A) (A) (A) (A) (A) (A) (A) (A)
                 (A) (A) (A) (A) (A) (A) (A) (A) (A) (A) (A) (A)
                 (A) (A) (A) (A) (A) (A) (A) (A) (A) (A) (A) (A)
                 (A) (A) (A) (A) (A) (A) (A) (A) (A) (A) (A) (A)
                 (A) (A) (A) (A) (A) (A) (A) (A) (A) (A) (A) (A)
                 (A) (A) (A) (A) (A) (A) (A) (A) (A) (A) (A) (A)
                 (A) (A) (A) (A) (A) (A) (A) (A) (A) (A) (A) (A)
                 (A) (A) (A) (A) (A) (A) (A) (A) (A) (A) (A) (A)
                 (A) (A) (A) (A) (A) (A) (A) (A) (A) (A) (A) (A)
                 (A) (A) (A) (A) (A) (A) (A) (A) (A) (A) (A) (A)
                 (A) (A) (A) (A) (A) (A) (A) (A) (A) (A) (A) (A)
                 (A) (A) (A) (A) (A) (A) (A) (A) (A) (A) (A) (A)
                 (A) (A) (A) (A) (A) (A) (A) (A) (A) (A) (A) (A)
                 (A) (A) (A) (A) (A) (A) (A) (A) (A) (A) (A) (A)
                 (A) (A) (A) (A) (A) (A) (A) (A) (A) (A) (A) (A)
                 (A) (A) (A) (A) (A) (A) (A) (A) (A) (A) (A) (A)
                 (A) (A) (A) (A) (A) (A) (A) (A) (A) (A) (A) (A)
                 (A) (A)
 The electronic state is 1-A.
 Alpha  occ. eigenvalues --  -18.81592 -18.79530 -18.75705 -18.74606 -18.74503
 Alpha  occ. eigenvalues --  -18.73825 -18.72482 -18.71293 -13.99344  -0.98471
 Alpha  occ. eigenvalues --   -0.96753  -0.92769  -0.92153  -0.91691  -0.90640
 Alpha  occ. eigenvalues --   -0.89340  -0.87840  -0.79747  -0.53696  -0.51226
 Alpha  occ. eigenvalues --   -0.47797  -0.47017  -0.46654  -0.45812  -0.45051
 Alpha  occ. eigenvalues --   -0.44622  -0.43272  -0.42972  -0.41731  -0.37441
 Alpha  occ. eigenvalues --   -0.36636  -0.34724  -0.34275  -0.33063  -0.32161
 Alpha  occ. eigenvalues --   -0.31301  -0.30501  -0.29135  -0.26409  -0.26018
 Alpha  occ. eigenvalues --   -0.25440  -0.25308  -0.24636  -0.23985  -0.23296
 Alpha virt. eigenvalues --   -0.06256  -0.03480  -0.02455  -0.01536  -0.01096
 Alpha virt. eigenvalues --    0.00690   0.01551   0.01679   0.01937   0.03157
 Alpha virt. eigenvalues --    0.03936   0.04023   0.04677   0.04724   0.05099
 Alpha virt. eigenvalues --    0.05455   0.05635   0.06304   0.06876   0.07324
 Alpha virt. eigenvalues --    0.07573   0.08171   0.08273   0.08859   0.09065
 Alpha virt. eigenvalues --    0.09225   0.09854   0.09978   0.10909   0.11052
 Alpha virt. eigenvalues --    0.11120   0.11506   0.11801   0.12031   0.12560
 Alpha virt. eigenvalues --    0.12902   0.13202   0.13544   0.13862   0.14395
 Alpha virt. eigenvalues --    0.14614   0.15121   0.15265   0.15777   0.16242
 Alpha virt. eigenvalues --    0.16570   0.16805   0.17123   0.17265   0.17668
 Alpha virt. eigenvalues --    0.17724   0.18101   0.18635   0.19009   0.19484
 Alpha virt. eigenvalues --    0.19881   0.20236   0.20710   0.20935   0.21635
 Alpha virt. eigenvalues --    0.21742   0.22487   0.23156   0.23450   0.23789
 Alpha virt. eigenvalues --    0.24040   0.24269   0.24739   0.25001   0.25592
 Alpha virt. eigenvalues --    0.25849   0.26369   0.26600   0.27118   0.27451
 Alpha virt. eigenvalues --    0.28031   0.28891   0.29258   0.29299   0.29683
 Alpha virt. eigenvalues --    0.29807   0.30040   0.30694   0.30803   0.31038
 Alpha virt. eigenvalues --    0.31236   0.31841   0.32031   0.32253   0.32577
 Alpha virt. eigenvalues --    0.32948   0.33322   0.33547   0.34222   0.34338
 Alpha virt. eigenvalues --    0.35134   0.35610   0.35943   0.36124   0.36877
 Alpha virt. eigenvalues --    0.37505   0.37864   0.38562   0.38777   0.39164
 Alpha virt. eigenvalues --    0.39674   0.39913   0.40491   0.40583   0.41650
 Alpha virt. eigenvalues --    0.42009   0.42298   0.42733   0.43308   0.43558
 Alpha virt. eigenvalues --    0.44275   0.44326   0.45137   0.45617   0.46285
 Alpha virt. eigenvalues --    0.47215   0.47672   0.48118   0.48349   0.49252
 Alpha virt. eigenvalues --    0.49755   0.51376   0.51569   0.51608   0.51911
 Alpha virt. eigenvalues --    0.52147   0.52763   0.54035   0.54217   0.54822
 Alpha virt. eigenvalues --    0.54853   0.55256   0.55563   0.56917   0.57360
 Alpha virt. eigenvalues --    0.58115   0.58870   0.59259   0.59345   0.60226
 Alpha virt. eigenvalues --    0.60843   0.61863   0.62094   0.62916   0.62952
 Alpha virt. eigenvalues --    0.63274   0.64158   0.64794   0.65768   0.66408
 Alpha virt. eigenvalues --    0.66867   0.67615   0.67745   0.68042   0.68176
 Alpha virt. eigenvalues --    0.68503   0.69346   0.69684   0.69860   0.70644
 Alpha virt. eigenvalues --    0.71182   0.71792   0.72251   0.72634   0.73150
 Alpha virt. eigenvalues --    0.73587   0.73936   0.74724   0.75121   0.75738
 Alpha virt. eigenvalues --    0.76451   0.76578   0.77073   0.77448   0.78119
 Alpha virt. eigenvalues --    0.78695   0.79074   0.79216   0.79946   0.80448
 Alpha virt. eigenvalues --    0.81037   0.81276   0.81705   0.82142   0.82513
 Alpha virt. eigenvalues --    0.82703   0.83100   0.83480   0.84362   0.84595
 Alpha virt. eigenvalues --    0.85273   0.85378   0.85757   0.86065   0.86293
 Alpha virt. eigenvalues --    0.86573   0.87016   0.87244   0.87486   0.87823
 Alpha virt. eigenvalues --    0.88344   0.89198   0.89347   0.90098   0.90832
 Alpha virt. eigenvalues --    0.91653   0.92076   0.92416   0.92829   0.93059
 Alpha virt. eigenvalues --    0.93521   0.93797   0.94210   0.94667   0.95140
 Alpha virt. eigenvalues --    0.95692   0.96279   0.97045   0.97314   0.97535
 Alpha virt. eigenvalues --    0.97888   0.98712   0.99279   0.99699   1.00090
 Alpha virt. eigenvalues --    1.01094   1.01131   1.01814   1.02263   1.02667
 Alpha virt. eigenvalues --    1.03026   1.03802   1.04420   1.04907   1.06004
 Alpha virt. eigenvalues --    1.06124   1.06392   1.07008   1.07962   1.08437
 Alpha virt. eigenvalues --    1.08606   1.09208   1.09657   1.10178   1.10940
 Alpha virt. eigenvalues --    1.11389   1.11912   1.12316   1.12707   1.13156
 Alpha virt. eigenvalues --    1.13412   1.14264   1.15066   1.15405   1.15544
 Alpha virt. eigenvalues --    1.16437   1.17082   1.17346   1.17710   1.18391
 Alpha virt. eigenvalues --    1.18978   1.19343   1.20108   1.20962   1.21082
 Alpha virt. eigenvalues --    1.21583   1.22125   1.22378   1.22741   1.24281
 Alpha virt. eigenvalues --    1.24895   1.25262   1.25512   1.26187   1.27090
 Alpha virt. eigenvalues --    1.27392   1.27739   1.28670   1.28839   1.29491
 Alpha virt. eigenvalues --    1.30879   1.31317   1.31887   1.32326   1.33376
 Alpha virt. eigenvalues --    1.34255   1.35526   1.35951   1.36552   1.37022
 Alpha virt. eigenvalues --    1.37486   1.38644   1.39264   1.39747   1.40846
 Alpha virt. eigenvalues --    1.41473   1.42085   1.42321   1.43133   1.44035
 Alpha virt. eigenvalues --    1.44647   1.45202   1.45640   1.46185   1.46892
 Alpha virt. eigenvalues --    1.48106   1.48281   1.48704   1.49791   1.50702
 Alpha virt. eigenvalues --    1.51311   1.51828   1.52225   1.52839   1.54334
 Alpha virt. eigenvalues --    1.54880   1.55445   1.55576   1.56759   1.57391
 Alpha virt. eigenvalues --    1.57569   1.58826   1.59210   1.59985   1.60222
 Alpha virt. eigenvalues --    1.60901   1.61639   1.62085   1.63163   1.63410
 Alpha virt. eigenvalues --    1.63658   1.65256   1.66207   1.66414   1.67332
 Alpha virt. eigenvalues --    1.68146   1.69350   1.71118   1.71330   1.72373
 Alpha virt. eigenvalues --    1.72620   1.73097   1.74302   1.74667   1.75628
 Alpha virt. eigenvalues --    1.75969   1.76228   1.77472   1.78041   1.79037
 Alpha virt. eigenvalues --    1.80219   1.80743   1.81973   1.82745   1.83367
 Alpha virt. eigenvalues --    1.83501   1.87618   1.88159   1.88683   1.89903
 Alpha virt. eigenvalues --    1.90275   1.90578   1.91163   1.93143   1.93849
 Alpha virt. eigenvalues --    1.95017   1.96217   1.97350   1.99218   1.99780
 Alpha virt. eigenvalues --    2.00410   2.02769   2.03633   2.04179   2.05726
 Alpha virt. eigenvalues --    2.06597   2.08618   2.09487   2.10436   2.10976
 Alpha virt. eigenvalues --    2.11940   2.12275   2.14067   2.14358   2.14960
 Alpha virt. eigenvalues --    2.16149   2.17471   2.17748   2.18102   2.18867
 Alpha virt. eigenvalues --    2.19017   2.19450   2.20175   2.21321   2.21938
 Alpha virt. eigenvalues --    2.22522   2.23088   2.24244   2.25085   2.25275
 Alpha virt. eigenvalues --    2.26571   2.27301   2.28234   2.28386   2.29791
 Alpha virt. eigenvalues --    2.30201   2.31246   2.32617   2.33119   2.33366
 Alpha virt. eigenvalues --    2.34206   2.34891   2.35911   2.36816   2.37399
 Alpha virt. eigenvalues --    2.38602   2.39680   2.39883   2.40391   2.41318
 Alpha virt. eigenvalues --    2.41941   2.42569   2.43559   2.44006   2.44260
 Alpha virt. eigenvalues --    2.45747   2.46272   2.47409   2.48026   2.48616
 Alpha virt. eigenvalues --    2.49608   2.49960   2.50636   2.51113   2.52057
 Alpha virt. eigenvalues --    2.52731   2.54551   2.55026   2.55054   2.55674
 Alpha virt. eigenvalues --    2.56486   2.57408   2.58142   2.58697   2.60051
 Alpha virt. eigenvalues --    2.60468   2.61433   2.62848   2.63043   2.64297
 Alpha virt. eigenvalues --    2.65014   2.65580   2.66075   2.68089   2.68716
 Alpha virt. eigenvalues --    2.69969   2.70603   2.71415   2.73191   2.74671
 Alpha virt. eigenvalues --    2.75977   2.76971   2.77018   2.78123   2.79469
 Alpha virt. eigenvalues --    2.80852   2.81546   2.83093   2.84068   2.84903
 Alpha virt. eigenvalues --    2.85443   2.87980   2.88137   2.89837   2.90919
 Alpha virt. eigenvalues --    2.92025   2.94489   2.95152   2.97511   3.00241
 Alpha virt. eigenvalues --    3.01950   3.02674   3.05119   3.07987   3.14349
 Alpha virt. eigenvalues --    3.18544   3.27278   3.35126   3.39386   3.42341
 Alpha virt. eigenvalues --    3.45023   3.46813   3.53205   3.61441   3.62470
 Alpha virt. eigenvalues --    3.63573   3.67792   3.69374   3.69994   3.71183
 Alpha virt. eigenvalues --    3.72086   3.73330   3.74825   3.75548   3.76002
 Alpha virt. eigenvalues --    3.77988   3.78932   3.79622   3.80070   3.82067
 Alpha virt. eigenvalues --    3.82550   3.83291   3.83854   3.85216   3.85992
 Alpha virt. eigenvalues --    3.86035   3.87787   3.88497   3.88546   3.89196
 Alpha virt. eigenvalues --    3.89524   3.90745   3.92265   3.92689   3.93300
 Alpha virt. eigenvalues --    3.93483   3.93979   3.94496   3.96129   3.96979
 Alpha virt. eigenvalues --    3.97493   3.97970   3.98624   3.99878   4.00503
 Alpha virt. eigenvalues --    4.01266   4.02007   4.02424   4.03335   4.04407
 Alpha virt. eigenvalues --    4.05194   4.05914   4.06547   4.07881   4.08586
 Alpha virt. eigenvalues --    4.09050   4.10048   4.10181   4.10794   4.11782
 Alpha virt. eigenvalues --    4.12552   4.13189   4.13833   4.14722   4.15460
 Alpha virt. eigenvalues --    4.16687   4.17098   4.18000   4.18760   4.19479
 Alpha virt. eigenvalues --    4.19572   4.19994   4.21180   4.21858   4.22792
 Alpha virt. eigenvalues --    4.24097   4.24855   4.25150   4.26171   4.27433
 Alpha virt. eigenvalues --    4.27614   4.28878   4.29056   4.30157   4.30595
 Alpha virt. eigenvalues --    4.32027   4.32170   4.33691   4.34282   4.34545
 Alpha virt. eigenvalues --    4.36879   4.37912   4.38012   4.38737   4.39250
 Alpha virt. eigenvalues --    4.41838   4.41964   4.42926   4.44316   4.46924
 Alpha virt. eigenvalues --    4.47060   4.48243   4.48867   4.49690   4.50720
 Alpha virt. eigenvalues --    4.52161   4.54876   4.55519   4.55864   4.57393
 Alpha virt. eigenvalues --    4.58145   4.60682   4.61722   4.63445   4.64486
 Alpha virt. eigenvalues --    4.65801   4.66211   4.67570   4.68433   4.69597
 Alpha virt. eigenvalues --    4.70638   4.71926   4.72482   4.73738   4.74481
 Alpha virt. eigenvalues --    4.74879   4.77326   4.77600   4.78424   4.79491
 Alpha virt. eigenvalues --    4.80350   4.80929   4.82108   4.83553   4.84313
 Alpha virt. eigenvalues --    4.86423   4.87898   4.88962   4.89107   4.90090
 Alpha virt. eigenvalues --    4.90645   4.92043   4.94178   4.94571   4.96371
 Alpha virt. eigenvalues --    4.96809   4.97438   4.99646   5.01029   5.02032
 Alpha virt. eigenvalues --    5.03359   5.04467   5.05712   5.07536   5.09234
 Alpha virt. eigenvalues --    5.11034   5.11562   5.13351   5.14598   5.15954
 Alpha virt. eigenvalues --    5.19217   5.19951   5.21815   5.23336   5.24801
 Alpha virt. eigenvalues --    5.27015   5.28072   5.29448   5.33724   5.35789
 Alpha virt. eigenvalues --    5.39480   5.42520   5.43308   5.44992   5.46212
 Alpha virt. eigenvalues --    5.47827   5.48881   5.49771   5.53942   5.61187
 Alpha virt. eigenvalues --    5.64285   5.71518   5.75299   5.77596   5.84353
 Alpha virt. eigenvalues --    5.84961   5.88279   5.92098   5.92714   5.95706
 Alpha virt. eigenvalues --    5.96285   6.00565   6.02654   6.03967   6.08787
 Alpha virt. eigenvalues --    6.10565   6.11049   6.12615   6.13124   6.18876
 Alpha virt. eigenvalues --    6.20258   6.25239   6.26049   6.28916   6.29655
 Alpha virt. eigenvalues --    6.31149   6.34902   6.35492   6.36689   6.39309
 Alpha virt. eigenvalues --    6.41144   6.42298   6.45308   6.47154   6.47762
 Alpha virt. eigenvalues --    6.51494   6.51750   6.54548   6.56128   6.56921
 Alpha virt. eigenvalues --    6.58372   6.59230   6.63185   6.65152   6.66017
 Alpha virt. eigenvalues --    6.67534   6.67779   6.68132   6.69155   6.71056
 Alpha virt. eigenvalues --    6.71950   6.72375   6.73292   6.73779   6.75392
 Alpha virt. eigenvalues --    6.76844   6.77284   6.78094   6.78649   6.79549
 Alpha virt. eigenvalues --    6.80147   6.80529   6.82914   6.83161   6.84717
 Alpha virt. eigenvalues --    6.84840   6.85637   6.86074   6.88131   6.89318
 Alpha virt. eigenvalues --    6.90387   6.91634   6.92445   6.92914   6.94326
 Alpha virt. eigenvalues --    6.94522   6.96159   6.97446   6.99920   7.00175
 Alpha virt. eigenvalues --    7.00612   7.02961   7.05501   7.06963   7.07723
 Alpha virt. eigenvalues --    7.10820   7.11825   7.15246   7.16422   7.17825
 Alpha virt. eigenvalues --    7.23773   7.25886   7.27333   7.28338   7.31725
 Alpha virt. eigenvalues --    7.33692   7.36277   7.37577   7.39566   7.40137
 Alpha virt. eigenvalues --    7.42665   7.42994   7.44172   7.47779   7.48381
 Alpha virt. eigenvalues --    7.50971   7.52437   7.53719   7.57376   7.59590
 Alpha virt. eigenvalues --    7.62467   7.65202   7.70764   7.82061   8.07890
 Alpha virt. eigenvalues --    8.18257   8.30556   8.31704   8.32930   8.41769
 Alpha virt. eigenvalues --    8.47572   8.51313  15.11524  15.46120  15.67235
 Alpha virt. eigenvalues --   16.02613  16.02899  16.48632  16.72735  17.78722
 Alpha virt. eigenvalues --   18.23056
          Condensed to atoms (all electrons):
               1          2          3          4          5          6
     1  H    0.592911   0.203061  -0.006117  -0.003754   0.011933   0.010060
     2  O    0.203061   8.038305   0.206977   0.025186  -0.081080  -0.076358
     3  H   -0.006117   0.206977   0.633929  -0.002664   0.013809   0.005879
     4  H   -0.003754   0.025186  -0.002664   0.614488   0.242464   0.037527
     5  O    0.011933  -0.081080   0.013809   0.242464   8.128706   0.191513
     6  H    0.010060  -0.076358   0.005879   0.037527   0.191513   0.532527
     7  H   -0.000504   0.003197  -0.002172  -0.011923   0.022071  -0.012142
     8  O   -0.000557   0.004895   0.000751   0.004948  -0.064233  -0.004360
     9  H   -0.000110  -0.000073   0.000013  -0.001281   0.008850  -0.003532
    10  H   -0.000000   0.000060   0.000005  -0.000058   0.002418   0.000087
    11  O    0.000040  -0.000188   0.000045   0.000579  -0.017153   0.001946
    12  H    0.000083  -0.000519   0.000029  -0.000078   0.006127   0.000771
    13  H   -0.000162   0.000419  -0.000110  -0.000974   0.004869  -0.002723
    14  O   -0.000107   0.000081   0.000116   0.002718  -0.002850   0.000907
    15  H   -0.000019  -0.000051   0.000124   0.000858   0.001912   0.000145
    16  H   -0.001384   0.001983  -0.001602  -0.006907  -0.030605  -0.003002
    17  O   -0.000731  -0.000055  -0.000317  -0.000788  -0.082069   0.002564
    18  H    0.000439  -0.000619  -0.000042  -0.002280   0.011739  -0.005352
    19  H    0.000015  -0.000046   0.000078   0.000226  -0.000214  -0.000155
    20  O   -0.000012  -0.000013   0.000012   0.000177  -0.000782   0.000514
    21  H   -0.000005  -0.000008  -0.000006   0.000058  -0.000059  -0.000059
    22  H   -0.000257  -0.000250   0.000227  -0.000017   0.002544   0.002152
    23  O    0.002965  -0.003355   0.000620   0.000853   0.006897  -0.001277
    24  H    0.000280   0.000379  -0.000065   0.000051  -0.001760   0.000944
    25  N    0.000008   0.000496   0.000016   0.000304   0.005789  -0.000793
    26  H   -0.000112   0.000038  -0.000158  -0.000054  -0.000971   0.000706
    27  H    0.000012  -0.000095   0.000007  -0.000035   0.000045  -0.000114
    28  H   -0.000209   0.001977  -0.000105   0.000830   0.004121  -0.000332
               7          8          9         10         11         12
     1  H   -0.000504  -0.000557  -0.000110  -0.000000   0.000040   0.000083
     2  O    0.003197   0.004895  -0.000073   0.000060  -0.000188  -0.000519
     3  H   -0.002172   0.000751   0.000013   0.000005   0.000045   0.000029
     4  H   -0.011923   0.004948  -0.001281  -0.000058   0.000579  -0.000078
     5  O    0.022071  -0.064233   0.008850   0.002418  -0.017153   0.006127
     6  H   -0.012142  -0.004360  -0.003532   0.000087   0.001946   0.000771
     7  H    0.591703   0.009639   0.073184  -0.000037   0.001213  -0.001081
     8  O    0.009639   8.406397   0.240538   0.000395   0.000717  -0.001532
     9  H    0.073184   0.240538   0.581115   0.000070   0.000519  -0.000255
    10  H   -0.000037   0.000395   0.000070   0.690925   0.129259   0.037738
    11  O    0.001213   0.000717   0.000519   0.129259   8.634802   0.025784
    12  H   -0.001081  -0.001532  -0.000255   0.037738   0.025784   0.505081
    13  H    0.016463   0.002672   0.017847   0.000553   0.002359   0.011140
    14  O   -0.003315  -0.057404  -0.007007   0.007717  -0.063086  -0.040625
    15  H   -0.011301  -0.074873  -0.012497   0.001479   0.000966   0.004470
    16  H    0.008014  -0.004713   0.001764  -0.002806   0.056073  -0.009325
    17  O   -0.001405  -0.002251   0.000088   0.009634  -0.125676   0.024852
    18  H   -0.001022   0.000123  -0.000393   0.013524  -0.101600   0.025355
    19  H   -0.000471  -0.000039   0.000032  -0.000018  -0.013885   0.000080
    20  O   -0.001489  -0.003119  -0.000427  -0.001893  -0.005355  -0.002053
    21  H   -0.000228  -0.000508  -0.000100   0.011480  -0.003223  -0.000702
    22  H   -0.000054   0.000086  -0.000011   0.000144   0.001263   0.000134
    23  O    0.000111   0.000037  -0.000030  -0.000051  -0.001023  -0.000114
    24  H   -0.000083   0.000008   0.000001  -0.000012  -0.000001   0.000171
    25  N   -0.000278   0.000457  -0.000095   0.005354  -0.005950  -0.003414
    26  H    0.000093   0.000449  -0.000069  -0.000576   0.002428  -0.000766
    27  H   -0.000119   0.000113   0.000057  -0.000427   0.001330  -0.000175
    28  H    0.000863  -0.001334  -0.000111  -0.002981   0.010492  -0.000250
              13         14         15         16         17         18
     1  H   -0.000162  -0.000107  -0.000019  -0.001384  -0.000731   0.000439
     2  O    0.000419   0.000081  -0.000051   0.001983  -0.000055  -0.000619
     3  H   -0.000110   0.000116   0.000124  -0.001602  -0.000317  -0.000042
     4  H   -0.000974   0.002718   0.000858  -0.006907  -0.000788  -0.002280
     5  O    0.004869  -0.002850   0.001912  -0.030605  -0.082069   0.011739
     6  H   -0.002723   0.000907   0.000145  -0.003002   0.002564  -0.005352
     7  H    0.016463  -0.003315  -0.011301   0.008014  -0.001405  -0.001022
     8  O    0.002672  -0.057404  -0.074873  -0.004713  -0.002251   0.000123
     9  H    0.017847  -0.007007  -0.012497   0.001764   0.000088  -0.000393
    10  H    0.000553   0.007717   0.001479  -0.002806   0.009634   0.013524
    11  O    0.002359  -0.063086   0.000966   0.056073  -0.125676  -0.101600
    12  H    0.011140  -0.040625   0.004470  -0.009325   0.024852   0.025355
    13  H    0.686384   0.096420  -0.013393  -0.000712  -0.001024   0.001162
    14  O    0.096420   8.637635   0.102347  -0.000216   0.004184   0.000069
    15  H   -0.013393   0.102347   0.645904  -0.001194   0.000353   0.002220
    16  H   -0.000712  -0.000216  -0.001194   0.578387  -0.024325   0.047112
    17  O   -0.001024   0.004184   0.000353  -0.024325   8.774297   0.189355
    18  H    0.001162   0.000069   0.002220   0.047112   0.189355   0.493839
    19  H    0.003164  -0.000348   0.022143  -0.001289  -0.000948   0.000948
    20  O   -0.062694  -0.093126   0.009588  -0.000015   0.002421   0.000876
    21  H   -0.006871   0.004813   0.028518  -0.000222   0.000522   0.000093
    22  H   -0.000149   0.000625   0.000106   0.011830  -0.016724  -0.002649
    23  O    0.000159   0.000003  -0.000085  -0.003527  -0.036075   0.002599
    24  H   -0.000007  -0.000075  -0.000009  -0.002850   0.016012  -0.000154
    25  N    0.002193  -0.001469  -0.001304  -0.006785  -0.009102   0.005820
    26  H    0.000340  -0.000524  -0.001549   0.000471  -0.000813  -0.001562
    27  H   -0.000369   0.000521   0.000414  -0.000841  -0.000119  -0.001706
    28  H    0.000897   0.000163   0.000228   0.001816   0.008611  -0.002244
              19         20         21         22         23         24
     1  H    0.000015  -0.000012  -0.000005  -0.000257   0.002965   0.000280
     2  O   -0.000046  -0.000013  -0.000008  -0.000250  -0.003355   0.000379
     3  H    0.000078   0.000012  -0.000006   0.000227   0.000620  -0.000065
     4  H    0.000226   0.000177   0.000058  -0.000017   0.000853   0.000051
     5  O   -0.000214  -0.000782  -0.000059   0.002544   0.006897  -0.001760
     6  H   -0.000155   0.000514  -0.000059   0.002152  -0.001277   0.000944
     7  H   -0.000471  -0.001489  -0.000228  -0.000054   0.000111  -0.000083
     8  O   -0.000039  -0.003119  -0.000508   0.000086   0.000037   0.000008
     9  H    0.000032  -0.000427  -0.000100  -0.000011  -0.000030   0.000001
    10  H   -0.000018  -0.001893   0.011480   0.000144  -0.000051  -0.000012
    11  O   -0.013885  -0.005355  -0.003223   0.001263  -0.001023  -0.000001
    12  H    0.000080  -0.002053  -0.000702   0.000134  -0.000114   0.000171
    13  H    0.003164  -0.062694  -0.006871  -0.000149   0.000159  -0.000007
    14  O   -0.000348  -0.093126   0.004813   0.000625   0.000003  -0.000075
    15  H    0.022143   0.009588   0.028518   0.000106  -0.000085  -0.000009
    16  H   -0.001289  -0.000015  -0.000222   0.011830  -0.003527  -0.002850
    17  O   -0.000948   0.002421   0.000522  -0.016724  -0.036075   0.016012
    18  H    0.000948   0.000876   0.000093  -0.002649   0.002599  -0.000154
    19  H    0.575588  -0.018199   0.063392   0.000208  -0.000281   0.000050
    20  O   -0.018199   8.448644   0.205587   0.000050  -0.000013  -0.000017
    21  H    0.063392   0.205587   0.634341   0.000055   0.000034  -0.000013
    22  H    0.000208   0.000050   0.000055   0.527994   0.098236   0.037288
    23  O   -0.000281  -0.000013   0.000034   0.098236   8.213493   0.212770
    24  H    0.000050  -0.000017  -0.000013   0.037288   0.212770   0.569314
    25  N    0.065545  -0.081375   0.001981   0.002354  -0.000483  -0.000024
    26  H   -0.005911   0.005723  -0.002169  -0.000076   0.000386  -0.000025
    27  H   -0.006427  -0.001522  -0.001247   0.000145   0.000052   0.000016
    28  H   -0.011815   0.009131  -0.000075  -0.000895   0.002992  -0.000449
              25         26         27         28
     1  H    0.000008  -0.000112   0.000012  -0.000209
     2  O    0.000496   0.000038  -0.000095   0.001977
     3  H    0.000016  -0.000158   0.000007  -0.000105
     4  H    0.000304  -0.000054  -0.000035   0.000830
     5  O    0.005789  -0.000971   0.000045   0.004121
     6  H   -0.000793   0.000706  -0.000114  -0.000332
     7  H   -0.000278   0.000093  -0.000119   0.000863
     8  O    0.000457   0.000449   0.000113  -0.001334
     9  H   -0.000095  -0.000069   0.000057  -0.000111
    10  H    0.005354  -0.000576  -0.000427  -0.002981
    11  O   -0.005950   0.002428   0.001330   0.010492
    12  H   -0.003414  -0.000766  -0.000175  -0.000250
    13  H    0.002193   0.000340  -0.000369   0.000897
    14  O   -0.001469  -0.000524   0.000521   0.000163
    15  H   -0.001304  -0.001549   0.000414   0.000228
    16  H   -0.006785   0.000471  -0.000841   0.001816
    17  O   -0.009102  -0.000813  -0.000119   0.008611
    18  H    0.005820  -0.001562  -0.001706  -0.002244
    19  H    0.065545  -0.005911  -0.006427  -0.011815
    20  O   -0.081375   0.005723  -0.001522   0.009131
    21  H    0.001981  -0.002169  -0.001247  -0.000075
    22  H    0.002354  -0.000076   0.000145  -0.000895
    23  O   -0.000483   0.000386   0.000052   0.002992
    24  H   -0.000024  -0.000025   0.000016  -0.000449
    25  N    6.400142   0.320646   0.376259   0.141721
    26  H    0.320646   0.703739  -0.035586  -0.002166
    27  H    0.376259  -0.035586   0.683430  -0.034185
    28  H    0.141721  -0.002166  -0.034185   0.627921
 Mulliken charges:
               1
     1  H    0.192234
     2  O   -0.324342
     3  H    0.150720
     4  H    0.099546
     5  O   -0.384032
     6  H    0.321956
     7  H    0.321074
     8  O   -0.457302
     9  H    0.101911
    10  H    0.098015
    11  O   -0.532677
    12  H    0.419072
    13  H    0.242147
    14  O   -0.588171
    15  H    0.294500
    16  H    0.394869
    17  O   -0.730469
    18  H    0.324352
    19  H    0.328576
    20  O   -0.410620
    21  H    0.064619
    22  H    0.335641
    23  O   -0.495895
    24  H    0.168258
    25  N   -0.218012
    26  H    0.018070
    27  H    0.020567
    28  H    0.245389
 Sum of Mulliken charges =  -0.00000
 Mulliken charges with hydrogens summed into heavy atoms:
               1
     2  O    0.018612
     5  O    0.037470
     8  O   -0.034317
    11  O   -0.015589
    14  O   -0.051524
    17  O   -0.011248
    20  O   -0.017425
    23  O    0.008005
    25  N    0.066015
         Mulliken charges condensed to fragments:
      1     -0.066015
      2      0.066015
 Electronic spatial extent (au):  <R**2>=           3283.8611
 Charge=              0.0000 electrons
 Dipole moment (field-independent basis, Debye):
    X=             -3.0672    Y=              2.0274    Z=              1.0875  Tot=              3.8341
 Quadrupole moment (field-independent basis, Debye-Ang):
   XX=            -57.3138   YY=            -63.5605   ZZ=            -56.9964
   XY=            -24.3619   XZ=             -6.4606   YZ=             -3.9041
 Traceless Quadrupole moment (field-independent basis, Debye-Ang):
   XX=              1.9764   YY=             -4.2702   ZZ=              2.2938
   XY=            -24.3619   XZ=             -6.4606   YZ=             -3.9041
 Octapole moment (field-independent basis, Debye-Ang**2):
  XXX=            -44.5548  YYY=             13.8790  ZZZ=             16.5825  XYY=             21.3637
  XXY=             24.5361  XXZ=            -18.1391  XZZ=            -28.4388  YZZ=             13.7001
  YYZ=             -0.2005  XYZ=            -16.9520
 Hexadecapole moment (field-independent basis, Debye-Ang**3):
 XXXX=          -1908.6604 YYYY=          -1244.9153 ZZZZ=           -452.6928 XXXY=           -278.2695
 XXXZ=           -133.1759 YYYX=           -144.3716 YYYZ=            -62.2114 ZZZX=            -25.8274
 ZZZY=            -15.0998 XXYY=           -591.1118 XXZZ=           -398.4885 YYZZ=           -231.1600
 XXYZ=            124.9848 YYXZ=            -31.8757 ZZXY=            -45.7471
 N-N= 5.592675035903D+02 E-N=-2.696609618011D+03  KE= 6.643318744334D+02
 No NMR shielding tensors so no spin-rotation constants.
 Leave Link  601 at Sat Jan 23 22:55:45 2021, MaxMem=  3221225472 cpu:              21.9 elap:               1.1
 (Enter /home/spantaleone/g16/l122.exe)
 CPIOFr:  IOpCl= 0 IRwI=-1 IRwCP=  731 ICalc= -1 LCPTot=     1095373 Len1MO=     2913475 IndFrg=     1095373
 CPIOFr:  IOpCl= 0 IRwI=-1 IRwCP=  731 ICalc=  0 LCPTot=     1095373 Len1MO=     2913475 IndFrg=     4008848
 Counterpoise: doing calculation for fragment   1 using the basis set of the full-system, NewBq=T
 Leave Link  122 at Sat Jan 23 22:55:46 2021, MaxMem=  3221225472 cpu:               1.6 elap:               0.1
 (Enter /home/spantaleone/g16/l301.exe)
 Basis read from rwf:  (5D, 7F)
 No pseudopotential information found on rwf file.
 There are   970 symmetry adapted cartesian basis functions of A   symmetry.
 There are   851 symmetry adapted basis functions of A   symmetry.
   851 basis functions,  1161 primitive gaussians,   970 cartesian basis functions
    40 alpha electrons       40 beta electrons
       nuclear repulsion energy       443.6914306751 Hartrees.
 IExCor= 3630 DFT=T Ex+Corr=B97D3 ExCW=0 ScaHFX=  0.000000
 ScaDFX=  1.000000  1.000000  1.000000  1.000000 ScalE2=  1.000000  1.000000
 IRadAn=      5 IRanWt=     -1 IRanGd=            0 ICorTp=0 IEmpDi=141
 NAtoms=   28 NActive=   28 NUniq=   28 SFac= 1.00D+00 NAtFMM=   60 NAOKFM=F Big=F
 Integral buffers will be    131072 words long.
 Raffenetti 2 integral format.
 Two-electron integral symmetry is turned on.
 R6Disp:  Grimme-D3(BJ) Dispersion energy=       -0.0312944762 Hartrees.
 Nuclear repulsion after empirical dispersion term =      443.6601361989 Hartrees.
 No density basis found on file   718.
 Leave Link  301 at Sat Jan 23 22:55:46 2021, MaxMem=  3221225472 cpu:               1.1 elap:               0.0
 (Enter /home/spantaleone/g16/l302.exe)
 NPDir=0 NMtPBC=     1 NCelOv=     1 NCel=       1 NClECP=     1 NCelD=      1
         NCelK=      1 NCelE2=     1 NClLst=     1 CellRange=     0.0.
 One-electron integrals computed using PRISM.
 One-electron integral symmetry used in STVInt
 NBasis=   851 RedAO= T EigKep=  2.46D-05  NBF=   851
 NBsUse=   851 1.00D-06 EigRej= -1.00D+00 NBFU=   851
 Precomputing XC quadrature grid using
 IXCGrd= 4 IRadAn=           5 IRanWt=          -1 IRanGd=           0 AccXCQ= 0.00D+00.
 Generated NRdTot=       0 NPtTot=           0 NUsed=           0 NTot=          32
 NSgBfM=   968   967   968   968   968 MxSgAt=    28 MxSgA2=    28.
 Leave Link  302 at Sat Jan 23 22:55:47 2021, MaxMem=  3221225472 cpu:              44.8 elap:               1.9
 (Enter /home/spantaleone/g16/l303.exe)
 DipDrv:  MaxL=1.
 Leave Link  303 at Sat Jan 23 22:55:48 2021, MaxMem=  3221225472 cpu:               4.2 elap:               0.2
 (Enter /home/spantaleone/g16/l401.exe)
 ExpMin= 2.53D-02 ExpMax= 1.53D+04 ExpMxC= 5.22D+02 IAcc=3 IRadAn=         5 AccDes= 0.00D+00
 Harris functional with IExCor= 3630 and IRadAn=       5 diagonalized for initial guess.
 HarFok:  IExCor= 3630 AccDes= 0.00D+00 IRadAn=         5 IDoV= 1 UseB2=F ITyADJ=14
 ICtDFT=  3500011 ScaDFX=  1.000000  1.000000  1.000000  1.000000
 FoFCou: FMM=F IPFlag=           0 FMFlag=      100000 FMFlg1=           0
         NFxFlg=           0 DoJE=T BraDBF=F KetDBF=T FulRan=T
         wScrn=  0.000000 ICntrl=       500 IOpCl=  0 I1Cent=   200000004 NGrid=           0
         NMat0=    1 NMatS0=      1 NMatT0=    0 NMatD0=    1 NMtDS0=    0 NMtDT0=    0
 Petite list used in FoFCou.
 Harris En= -611.774165795852    
 JPrj=0 DoOrth=F DoCkMO=F.
 Leave Link  401 at Sat Jan 23 22:55:54 2021, MaxMem=  3221225472 cpu:             144.5 elap:               6.0
 (Enter /home/spantaleone/g16/l502.exe)
 Integral symmetry usage will be decided dynamically.
 Closed shell SCF:
 Using DIIS extrapolation, IDIIS=  1040.
 NGot=  3221225472 LenX=  3219312446 LenY=  3218370576
 Requested convergence on RMS density matrix=1.00D-08 within 128 cycles.
 Requested convergence on MAX density matrix=1.00D-06.
 Requested convergence on             energy=1.00D-06.
 No special actions if energy rises.
 Fock matrices will be formed incrementally for  20 cycles.

 Cycle   1  Pass 1  IDiag  1:
 FoFJK:  IHMeth= 1 ICntrl=     500 DoSepK=F KAlg= 0 I1Cent=           0 FoldK=F
 IRaf= 900000000 NMat=       1 IRICut=       1 DoRegI=T DoRafI=F ISym2E= 0 IDoP0=0 IntGTp=1.
 FoFCou: FMM=F IPFlag=           0 FMFlag=      100000 FMFlg1=           0
         NFxFlg=           0 DoJE=T BraDBF=F KetDBF=F FulRan=T
         wScrn=  0.000000 ICntrl=       500 IOpCl=  0 I1Cent=           0 NGrid=           0
         NMat0=    1 NMatS0=      1 NMatT0=    0 NMatD0=    1 NMtDS0=    0 NMtDT0=    0
 Symmetry not used in FoFCou.
 E= -610.882604278236    
 DIIS: error= 1.83D-02 at cycle   1 NSaved=   1.
 NSaved= 1 IEnMin= 1 EnMin= -610.882604278236     IErMin= 1 ErrMin= 1.83D-02
 ErrMax= 1.83D-02  0.00D+00 EMaxC= 1.00D-01 BMatC= 8.22D-01 BMatP= 8.22D-01
 IDIUse=3 WtCom= 8.17D-01 WtEn= 1.83D-01
 Coeff-Com:  0.100D+01
 Coeff-En:   0.100D+01
 Coeff:      0.100D+01
 Gap=     0.016 Goal=   None    Shift=    0.000
 GapD=    0.016 DampG=0.250 DampE=0.500 DampFc=0.2500 IDamp=-1.
 Damping current iteration by 2.50D-01
 RMSDP=2.05D-03 MaxDP=1.60D-01              OVMax= 4.26D-01

 Cycle   2  Pass 1  IDiag  1:
 RMSU=  5.08D-04    CP:  9.87D-01
 E= -611.080276716247     Delta-E=       -0.197672438011 Rises=F Damp=T
 DIIS: error= 4.78D-03 at cycle   2 NSaved=   2.
 NSaved= 2 IEnMin= 2 EnMin= -611.080276716247     IErMin= 2 ErrMin= 4.78D-03
 ErrMax= 4.78D-03  0.00D+00 EMaxC= 1.00D-01 BMatC= 5.67D-02 BMatP= 8.22D-01
 IDIUse=3 WtCom= 9.52D-01 WtEn= 4.78D-02
 Coeff-Com: -0.319D+00 0.132D+01
 Coeff-En:   0.632D-01 0.937D+00
 Coeff:     -0.301D+00 0.130D+01
 Gap=     0.151 Goal=   None    Shift=    0.000
 RMSDP=3.68D-04 MaxDP=2.79D-02 DE=-1.98D-01 OVMax= 3.80D-01

 Cycle   3  Pass 1  IDiag  1:
 RMSU=  3.60D-04    CP:  9.77D-01  8.79D-01
 E= -611.456519135263     Delta-E=       -0.376242419016 Rises=F Damp=F
 DIIS: error= 3.57D-03 at cycle   3 NSaved=   3.
 NSaved= 3 IEnMin= 3 EnMin= -611.456519135263     IErMin= 3 ErrMin= 3.57D-03
 ErrMax= 3.57D-03  0.00D+00 EMaxC= 1.00D-01 BMatC= 1.29D-02 BMatP= 5.67D-02
 IDIUse=3 WtCom= 9.64D-01 WtEn= 3.57D-02
 Coeff-Com: -0.189D+00 0.743D+00 0.446D+00
 Coeff-En:   0.000D+00 0.000D+00 0.100D+01
 Coeff:     -0.182D+00 0.717D+00 0.466D+00
 Gap=     0.181 Goal=   None    Shift=    0.000
 RMSDP=1.05D-04 MaxDP=1.29D-02 DE=-3.76D-01 OVMax= 3.36D-02

 Cycle   4  Pass 1  IDiag  1:
 RMSU=  1.04D-04    CP:  9.77D-01  8.97D-01  9.54D-01
 E= -611.464610235832     Delta-E=       -0.008091100569 Rises=F Damp=F
 DIIS: error= 1.14D-03 at cycle   4 NSaved=   4.
 NSaved= 4 IEnMin= 4 EnMin= -611.464610235832     IErMin= 4 ErrMin= 1.14D-03
 ErrMax= 1.14D-03  0.00D+00 EMaxC= 1.00D-01 BMatC= 2.22D-03 BMatP= 1.29D-02
 IDIUse=3 WtCom= 9.89D-01 WtEn= 1.14D-02
 Coeff-Com: -0.306D-01 0.543D-01 0.277D+00 0.699D+00
 Coeff-En:   0.000D+00 0.000D+00 0.122D+00 0.878D+00
 Coeff:     -0.303D-01 0.537D-01 0.275D+00 0.701D+00
 Gap=     0.166 Goal=   None    Shift=    0.000
 RMSDP=5.98D-05 MaxDP=6.15D-03 DE=-8.09D-03 OVMax= 6.77D-03

 Cycle   5  Pass 1  IDiag  1:
 RMSU=  4.44D-05    CP:  9.78D-01  9.65D-01  9.83D-01  8.31D-01
 E= -611.466045613809     Delta-E=       -0.001435377977 Rises=F Damp=F
 DIIS: error= 2.05D-04 at cycle   5 NSaved=   5.
 NSaved= 5 IEnMin= 5 EnMin= -611.466045613809     IErMin= 5 ErrMin= 2.05D-04
 ErrMax= 2.05D-04  0.00D+00 EMaxC= 1.00D-01 BMatC= 8.04D-05 BMatP= 2.22D-03
 IDIUse=3 WtCom= 9.98D-01 WtEn= 2.05D-03
 Coeff-Com: -0.271D-02-0.291D-03 0.943D-01 0.250D+00 0.658D+00
 Coeff-En:   0.000D+00 0.000D+00 0.000D+00 0.000D+00 0.100D+01
 Coeff:     -0.270D-02-0.290D-03 0.941D-01 0.250D+00 0.659D+00
 Gap=     0.167 Goal=   None    Shift=    0.000
 RMSDP=9.12D-06 MaxDP=1.08D-03 DE=-1.44D-03 OVMax= 1.54D-03

 Cycle   6  Pass 1  IDiag  1:
 RMSU=  8.31D-06    CP:  9.77D-01  9.58D-01  9.84D-01  8.36D-01  9.61D-01
 E= -611.466095705013     Delta-E=       -0.000050091204 Rises=F Damp=F
 DIIS: error= 1.00D-04 at cycle   6 NSaved=   6.
 NSaved= 6 IEnMin= 6 EnMin= -611.466095705013     IErMin= 6 ErrMin= 1.00D-04
 ErrMax= 1.00D-04  0.00D+00 EMaxC= 1.00D-01 BMatC= 2.83D-05 BMatP= 8.04D-05
 IDIUse=3 WtCom= 9.99D-01 WtEn= 1.00D-03
 Coeff-Com:  0.168D-02-0.428D-02 0.401D-01 0.913D-01 0.392D+00 0.479D+00
 Coeff-En:   0.000D+00 0.000D+00 0.000D+00 0.000D+00 0.115D+00 0.885D+00
 Coeff:      0.167D-02-0.427D-02 0.401D-01 0.912D-01 0.392D+00 0.479D+00
 Gap=     0.168 Goal=   None    Shift=    0.000
 RMSDP=4.57D-06 MaxDP=5.17D-04 DE=-5.01D-05 OVMax= 9.12D-04

 Cycle   7  Pass 1  IDiag  1:
 RMSU=  3.13D-06    CP:  9.77D-01  9.56D-01  9.85D-01  8.23D-01  9.62D-01
                    CP:  6.57D-01
 E= -611.466112727997     Delta-E=       -0.000017022984 Rises=F Damp=F
 DIIS: error= 4.89D-05 at cycle   7 NSaved=   7.
 NSaved= 7 IEnMin= 7 EnMin= -611.466112727997     IErMin= 7 ErrMin= 4.89D-05
 ErrMax= 4.89D-05  0.00D+00 EMaxC= 1.00D-01 BMatC= 3.92D-06 BMatP= 2.83D-05
 IDIUse=1 WtCom= 1.00D+00 WtEn= 0.00D+00
 Coeff-Com:  0.172D-02-0.202D-02 0.122D-01 0.141D-01 0.130D+00 0.297D+00
 Coeff-Com:  0.547D+00
 Coeff:      0.172D-02-0.202D-02 0.122D-01 0.141D-01 0.130D+00 0.297D+00
 Coeff:      0.547D+00
 Gap=     0.168 Goal=   None    Shift=    0.000
 RMSDP=1.54D-06 MaxDP=1.95D-04 DE=-1.70D-05 OVMax= 4.26D-04

 Cycle   8  Pass 1  IDiag  1:
 RMSU=  9.83D-07    CP:  9.77D-01  9.55D-01  9.85D-01  8.19D-01  9.60D-01
                    CP:  7.15D-01  7.51D-01
 E= -611.466115485030     Delta-E=       -0.000002757033 Rises=F Damp=F
 DIIS: error= 5.15D-06 at cycle   8 NSaved=   8.
 NSaved= 8 IEnMin= 8 EnMin= -611.466115485030     IErMin= 8 ErrMin= 5.15D-06
 ErrMax= 5.15D-06  0.00D+00 EMaxC= 1.00D-01 BMatC= 5.72D-08 BMatP= 3.92D-06
 IDIUse=1 WtCom= 1.00D+00 WtEn= 0.00D+00
 Coeff-Com:  0.640D-03-0.619D-03 0.387D-02 0.314D-02 0.363D-01 0.919D-01
 Coeff-Com:  0.197D+00 0.668D+00
 Coeff:      0.640D-03-0.619D-03 0.387D-02 0.314D-02 0.363D-01 0.919D-01
 Coeff:      0.197D+00 0.668D+00
 Gap=     0.168 Goal=   None    Shift=    0.000
 RMSDP=2.62D-07 MaxDP=2.76D-05 DE=-2.76D-06 OVMax= 7.67D-05

 Cycle   9  Pass 1  IDiag  1:
 RMSU=  2.10D-07    CP:  9.77D-01  9.54D-01  9.85D-01  8.19D-01  9.60D-01
                    CP:  7.17D-01  7.62D-01  9.37D-01
 E= -611.466115514128     Delta-E=       -0.000000029098 Rises=F Damp=F
 DIIS: error= 3.07D-06 at cycle   9 NSaved=   9.
 NSaved= 9 IEnMin= 9 EnMin= -611.466115514128     IErMin= 9 ErrMin= 3.07D-06
 ErrMax= 3.07D-06  0.00D+00 EMaxC= 1.00D-01 BMatC= 1.96D-08 BMatP= 5.72D-08
 IDIUse=1 WtCom= 1.00D+00 WtEn= 0.00D+00
 Coeff-Com:  0.234D-03-0.196D-03 0.130D-02 0.766D-03 0.943D-02 0.268D-01
 Coeff-Com:  0.675D-01 0.427D+00 0.467D+00
 Coeff:      0.234D-03-0.196D-03 0.130D-02 0.766D-03 0.943D-02 0.268D-01
 Coeff:      0.675D-01 0.427D+00 0.467D+00
 Gap=     0.168 Goal=   None    Shift=    0.000
 RMSDP=1.26D-07 MaxDP=1.38D-05 DE=-2.91D-08 OVMax= 3.06D-05

 Cycle  10  Pass 1  IDiag  1:
 RMSU=  8.70D-08    CP:  9.77D-01  9.54D-01  9.85D-01  8.19D-01  9.60D-01
                    CP:  7.16D-01  7.67D-01  9.66D-01  6.20D-01
 E= -611.466115526605     Delta-E=       -0.000000012477 Rises=F Damp=F
 DIIS: error= 7.55D-07 at cycle  10 NSaved=  10.
 NSaved=10 IEnMin=10 EnMin= -611.466115526605     IErMin=10 ErrMin= 7.55D-07
 ErrMax= 7.55D-07  0.00D+00 EMaxC= 1.00D-01 BMatC= 1.11D-09 BMatP= 1.96D-08
 IDIUse=1 WtCom= 1.00D+00 WtEn= 0.00D+00
 Coeff-Com:  0.343D-04-0.245D-04 0.121D-03-0.968D-06-0.242D-03 0.850D-03
 Coeff-Com:  0.690D-02 0.115D+00 0.242D+00 0.636D+00
 Coeff:      0.343D-04-0.245D-04 0.121D-03-0.968D-06-0.242D-03 0.850D-03
 Coeff:      0.690D-02 0.115D+00 0.242D+00 0.636D+00
 Gap=     0.168 Goal=   None    Shift=    0.000
 RMSDP=2.92D-08 MaxDP=3.51D-06 DE=-1.25D-08 OVMax= 6.38D-06

 Cycle  11  Pass 1  IDiag  1:
 RMSU=  2.23D-08    CP:  9.77D-01  9.54D-01  9.85D-01  8.19D-01  9.59D-01
                    CP:  7.16D-01  7.66D-01  9.68D-01  6.88D-01  8.98D-01
 E= -611.466115527370     Delta-E=       -0.000000000765 Rises=F Damp=F
 DIIS: error= 5.29D-08 at cycle  11 NSaved=  11.
 NSaved=11 IEnMin=11 EnMin= -611.466115527370     IErMin=11 ErrMin= 5.29D-08
 ErrMax= 5.29D-08  0.00D+00 EMaxC= 1.00D-01 BMatC= 9.93D-12 BMatP= 1.11D-09
 IDIUse=1 WtCom= 1.00D+00 WtEn= 0.00D+00
 Coeff-Com:  0.281D-05-0.747D-06-0.719D-05-0.230D-04-0.368D-03-0.390D-03
 Coeff-Com:  0.280D-03 0.180D-01 0.515D-01 0.159D+00 0.772D+00
 Coeff:      0.281D-05-0.747D-06-0.719D-05-0.230D-04-0.368D-03-0.390D-03
 Coeff:      0.280D-03 0.180D-01 0.515D-01 0.159D+00 0.772D+00
 Gap=     0.168 Goal=   None    Shift=    0.000
 RMSDP=5.23D-09 MaxDP=5.74D-07 DE=-7.65D-10 OVMax= 9.72D-07

 SCF Done:  E(RB97D3) =  -611.466115527     A.U. after   11 cycles
            NFock= 11  Conv=0.52D-08     -V/T= 2.0056
 KE= 6.080534917707D+02 PE=-2.333111445405D+03 EE= 6.699317019077D+02
 Leave Link  502 at Sat Jan 23 23:00:52 2021, MaxMem=  3221225472 cpu:            7151.1 elap:             298.2
 (Enter /home/spantaleone/g16/l601.exe)
 Copying SCF densities to generalized density rwf, IOpCl= 0 IROHF=0.

 **********************************************************************

            Population analysis using the SCF Density.

 **********************************************************************

 Orbital symmetries:
       Occupied  (A) (A) (A) (A) (A) (A) (A) (A) (A) (A) (A) (A)
                 (A) (A) (A) (A) (A) (A) (A) (A) (A) (A) (A) (A)
                 (A) (A) (A) (A) (A) (A) (A) (A) (A) (A) (A) (A)
                 (A) (A) (A) (A)
       Virtual   (A) (A) (A) (A) (A) (A) (A) (A) (A) (A) (A) (A)
                 (A) (A) (A) (A) (A) (A) (A) (A) (A) (A) (A) (A)
                 (A) (A) (A) (A) (A) (A) (A) (A) (A) (A) (A) (A)
                 (A) (A) (A) (A) (A) (A) (A) (A) (A) (A) (A) (A)
                 (A) (A) (A) (A) (A) (A) (A) (A) (A) (A) (A) (A)
                 (A) (A) (A) (A) (A) (A) (A) (A) (A) (A) (A) (A)
                 (A) (A) (A) (A) (A) (A) (A) (A) (A) (A) (A) (A)
                 (A) (A) (A) (A) (A) (A) (A) (A) (A) (A) (A) (A)
[...]
 Charge=              0.0000 electrons
 Dipole moment (field-independent basis, Debye):
    X=             -0.6210    Y=              2.9905    Z=              0.6700  Tot=              3.1269
 Quadrupole moment (field-independent basis, Debye-Ang):
   XX=            -41.8596   YY=            -59.8354   ZZ=            -52.0616
   XY=            -25.9681   XZ=             -4.3779   YZ=             -2.1350
 Traceless Quadrupole moment (field-independent basis, Debye-Ang):
   XX=              9.3926   YY=             -8.5832   ZZ=             -0.8094
   XY=            -25.9681   XZ=             -4.3779   YZ=             -2.1350
 Octapole moment (field-independent basis, Debye-Ang**2):
  XXX=              7.8472  YYY=            -13.6270  ZZZ=             45.9927  XYY=             29.1187
  XXY=              3.4844  XXZ=              4.6781  XZZ=            -18.2528  YZZ=              5.3745
  YYZ=              5.2298  XYZ=            -17.5832
 Hexadecapole moment (field-independent basis, Debye-Ang**3):
 XXXX=          -1754.7832 YYYY=          -1121.7537 ZZZZ=           -337.2646 XXXY=           -345.2485
 XXXZ=            -64.0259 YYYX=           -176.1693 YYYZ=           -107.5926 ZZZX=             11.2166
 ZZZY=            -72.2278 XXYY=           -545.6442 XXZZ=           -351.6393 YYZZ=           -195.6340
 XXYZ=             90.9963 YYXZ=            -24.5586 ZZXY=            -58.3743
 N-N= 4.436601361989D+02 E-N=-2.333106064186D+03  KE= 6.080503573059D+02
 No NMR shielding tensors so no spin-rotation constants.
 Leave Link  601 at Sat Jan 23 23:07:57 2021, MaxMem=  3221225472 cpu:              17.5 elap:               0.8
 (Enter /home/spantaleone/g16/l122.exe)
 CPIOFr:  IOpCl= 0 IRwI=-1 IRwCP=  731 ICalc=  3 LCPTot=     1095373 Len1MO=     2913475 IndFrg=    12749273
 Counterpoise: doing calculation for fragment   2 using the basis set of the fragment.
 Leave Link  122 at Sat Jan 23 23:07:57 2021, MaxMem=  3221225472 cpu:               1.0 elap:               0.0
 (Enter /home/spantaleone/g16/l301.exe)
 Basis read from rwf:  (5D, 7F)
 No pseudopotential information found on rwf file.
 There are   130 symmetry adapted cartesian basis functions of A   symmetry.
 There are   115 symmetry adapted basis functions of A   symmetry.
   115 basis functions,   153 primitive gaussians,   130 cartesian basis functions
     5 alpha electrons        5 beta electrons
       nuclear repulsion energy        11.9000972139 Hartrees.
 IExCor= 3630 DFT=T Ex+Corr=B97D3 ExCW=0 ScaHFX=  0.000000
 ScaDFX=  1.000000  1.000000  1.000000  1.000000 ScalE2=  1.000000  1.000000
 IRadAn=      5 IRanWt=     -1 IRanGd=            0 ICorTp=0 IEmpDi=141
 NAtoms=   28 NActive=    4 NUniq=    4 SFac= 1.00D+00 NAtFMM=   60 NAOKFM=F Big=F
 Integral buffers will be    131072 words long.
 Raffenetti 2 integral format.
 Two-electron integral symmetry is turned on.
 R6Disp:  Grimme-D3(BJ) Dispersion energy=       -0.0026833662 Hartrees.
 Nuclear repulsion after empirical dispersion term =       11.8974138477 Hartrees.
 No density basis found on file   718.
 Leave Link  301 at Sat Jan 23 23:07:57 2021, MaxMem=  3221225472 cpu:               1.0 elap:               0.0
 (Enter /home/spantaleone/g16/l302.exe)
 NPDir=0 NMtPBC=     1 NCelOv=     1 NCel=       1 NClECP=     1 NCelD=      1
         NCelK=      1 NCelE2=     1 NClLst=     1 CellRange=     0.0.
 One-electron integrals computed using PRISM.
 One-electron integral symmetry used in STVInt
 NBasis=   115 RedAO= T EigKep=  2.73D-04  NBF=   115
 NBsUse=   115 1.00D-06 EigRej= -1.00D+00 NBFU=   115
 Precomputing XC quadrature grid using
 IXCGrd= 4 IRadAn=           5 IRanWt=          -1 IRanGd=           0 AccXCQ= 0.00D+00.
 Generated NRdTot=       0 NPtTot=           0 NUsed=           0 NTot=          32
 NSgBfM=   130   130   130   130   130 MxSgAt=     4 MxSgA2=     4.
 Leave Link  302 at Sat Jan 23 23:07:58 2021, MaxMem=  3221225472 cpu:               5.2 elap:               0.2
 (Enter /home/spantaleone/g16/l303.exe)
 DipDrv:  MaxL=1.
 Leave Link  303 at Sat Jan 23 23:07:58 2021, MaxMem=  3221225472 cpu:               0.8 elap:               0.0
 (Enter /home/spantaleone/g16/l401.exe)
 ExpMin= 2.53D-02 ExpMax= 1.14D+04 ExpMxC= 3.89D+02 IAcc=3 IRadAn=         5 AccDes= 0.00D+00
 Harris functional with IExCor= 3630 and IRadAn=       5 diagonalized for initial guess.
 HarFok:  IExCor= 3630 AccDes= 0.00D+00 IRadAn=         5 IDoV= 1 UseB2=F ITyADJ=14
 ICtDFT=  3500011 ScaDFX=  1.000000  1.000000  1.000000  1.000000
 FoFCou: FMM=F IPFlag=           0 FMFlag=      100000 FMFlg1=           0
         NFxFlg=           0 DoJE=T BraDBF=F KetDBF=T FulRan=T
         wScrn=  0.000000 ICntrl=       500 IOpCl=  0 I1Cent=   200000004 NGrid=           0
         NMat0=    1 NMatS0=      1 NMatT0=    0 NMatD0=    1 NMtDS0=    0 NMtDT0=    0
 Petite list used in FoFCou.
 Harris En= -56.5998690492644    
 JPrj=0 DoOrth=F DoCkMO=F.
 Leave Link  401 at Sat Jan 23 23:07:58 2021, MaxMem=  3221225472 cpu:               7.7 elap:               0.3
 (Enter /home/spantaleone/g16/l502.exe)
 Keep J ints in memory in canonical form, NReq=45188355.
 FoFCou: FMM=F IPFlag=           0 FMFlag=           0 FMFlg1=           0
         NFxFlg=           0 DoJE=F BraDBF=F KetDBF=F FulRan=T
         wScrn=  0.000000 ICntrl=       600 IOpCl=  0 I1Cent=           0 NGrid=           0
         NMat0=    1 NMatS0=   6670 NMatT0=    0 NMatD0=    1 NMtDS0=    0 NMtDT0=    0
 Symmetry not used in FoFCou.
 Two-electron integral symmetry not used.
 Closed shell SCF:
 Using DIIS extrapolation, IDIIS=  1040.
 NGot=  3221225472 LenX=  3198938853 LenY=  3198921512
 Requested convergence on RMS density matrix=1.00D-08 within 128 cycles.
 Requested convergence on MAX density matrix=1.00D-06.
 Requested convergence on             energy=1.00D-06.
 No special actions if energy rises.

 Cycle   1  Pass 1  IDiag  1:
 E= -56.4707048859354    
 DIIS: error= 4.18D-02 at cycle   1 NSaved=   1.
 NSaved= 1 IEnMin= 1 EnMin= -56.4707048859354     IErMin= 1 ErrMin= 4.18D-02
 ErrMax= 4.18D-02  0.00D+00 EMaxC= 1.00D-01 BMatC= 1.02D-01 BMatP= 1.02D-01
 IDIUse=3 WtCom= 5.82D-01 WtEn= 4.18D-01
 Coeff-Com:  0.100D+01
 Coeff-En:   0.100D+01
 Coeff:      0.100D+01
 Gap=     0.051 Goal=   None    Shift=    0.000
 GapD=    0.051 DampG=0.500 DampE=0.500 DampFc=0.2500 IDamp=-1.
 Damping current iteration by 2.50D-01
 RMSDP=4.09D-03 MaxDP=8.82D-02              OVMax= 3.69D-01

 Cycle   2  Pass 1  IDiag  1:
 E= -56.5004972535229     Delta-E=       -0.029792367588 Rises=F Damp=T
 DIIS: error= 1.12D-02 at cycle   2 NSaved=   2.
 NSaved= 2 IEnMin= 2 EnMin= -56.5004972535229     IErMin= 2 ErrMin= 1.12D-02
 ErrMax= 1.12D-02  0.00D+00 EMaxC= 1.00D-01 BMatC= 9.21D-03 BMatP= 1.02D-01
 IDIUse=3 WtCom= 8.88D-01 WtEn= 1.12D-01
 Coeff-Com: -0.359D+00 0.136D+01
 Coeff-En:   0.261D-01 0.974D+00
 Coeff:     -0.316D+00 0.132D+01
 Gap=     0.183 Goal=   None    Shift=    0.000
 RMSDP=7.88D-04 MaxDP=3.43D-02 DE=-2.98D-02 OVMax= 2.73D-01

 Cycle   3  Pass 1  IDiag  1:
 E= -56.5552911647734     Delta-E=       -0.054793911250 Rises=F Damp=F
 DIIS: error= 7.37D-04 at cycle   3 NSaved=   3.
 NSaved= 3 IEnMin= 3 EnMin= -56.5552911647734     IErMin= 3 ErrMin= 7.37D-04
 ErrMax= 7.37D-04  0.00D+00 EMaxC= 1.00D-01 BMatC= 4.86D-05 BMatP= 9.21D-03
 IDIUse=3 WtCom= 9.93D-01 WtEn= 7.37D-03
 Coeff-Com: -0.992D-02 0.240D-01 0.986D+00
 Coeff-En:   0.000D+00 0.000D+00 0.100D+01
 Coeff:     -0.984D-02 0.238D-01 0.986D+00
 Gap=     0.201 Goal=   None    Shift=    0.000
 RMSDP=1.15D-04 MaxDP=1.95D-03 DE=-5.48D-02 OVMax= 5.78D-03

 Cycle   4  Pass 1  IDiag  1:
 E= -56.5553231919154     Delta-E=       -0.000032027142 Rises=F Damp=F
 DIIS: error= 5.79D-04 at cycle   4 NSaved=   4.
 NSaved= 4 IEnMin= 4 EnMin= -56.5553231919154     IErMin= 4 ErrMin= 5.79D-04
 ErrMax= 5.79D-04  0.00D+00 EMaxC= 1.00D-01 BMatC= 2.06D-05 BMatP= 4.86D-05
 IDIUse=3 WtCom= 9.94D-01 WtEn= 5.79D-03
 Coeff-Com:  0.129D-01-0.151D-01 0.222D+00 0.780D+00
 Coeff-En:   0.000D+00 0.000D+00 0.175D+00 0.825D+00
 Coeff:      0.129D-01-0.150D-01 0.222D+00 0.781D+00
 Gap=     0.203 Goal=   None    Shift=    0.000
 RMSDP=2.40D-05 MaxDP=7.71D-04 DE=-3.20D-05 OVMax= 1.90D-03

 Cycle   5  Pass 1  IDiag  1:
 E= -56.5553421551326     Delta-E=       -0.000018963217 Rises=F Damp=F
 DIIS: error= 1.34D-04 at cycle   5 NSaved=   5.
 NSaved= 5 IEnMin= 5 EnMin= -56.5553421551326     IErMin= 5 ErrMin= 1.34D-04
 ErrMax= 1.34D-04  0.00D+00 EMaxC= 1.00D-01 BMatC= 7.37D-07 BMatP= 2.06D-05
 IDIUse=3 WtCom= 9.99D-01 WtEn= 1.34D-03
 Coeff-Com:  0.608D-02-0.628D-02 0.438D-01 0.238D+00 0.718D+00
 Coeff-En:   0.000D+00 0.000D+00 0.000D+00 0.000D+00 0.100D+01
 Coeff:      0.607D-02-0.627D-02 0.438D-01 0.238D+00 0.718D+00
 Gap=     0.203 Goal=   None    Shift=    0.000
 RMSDP=5.04D-06 MaxDP=9.85D-05 DE=-1.90D-05 OVMax= 3.22D-04

 Cycle   6  Pass 1  IDiag  1:
 E= -56.5553428346362     Delta-E=       -0.000000679504 Rises=F Damp=F
 DIIS: error= 1.16D-05 at cycle   6 NSaved=   6.
 NSaved= 6 IEnMin= 6 EnMin= -56.5553428346362     IErMin= 6 ErrMin= 1.16D-05
 ErrMax= 1.16D-05  0.00D+00 EMaxC= 1.00D-01 BMatC= 7.27D-09 BMatP= 7.37D-07
 IDIUse=1 WtCom= 1.00D+00 WtEn= 0.00D+00
 Coeff-Com:  0.199D-03-0.188D-03 0.167D-02-0.666D-02-0.924D-02 0.101D+01
 Coeff:      0.199D-03-0.188D-03 0.167D-02-0.666D-02-0.924D-02 0.101D+01
 Gap=     0.203 Goal=   None    Shift=    0.000
 RMSDP=7.29D-07 MaxDP=1.27D-05 DE=-6.80D-07 OVMax= 3.81D-05

 Cycle   7  Pass 1  IDiag  1:
 E= -56.5553428416043     Delta-E=       -0.000000006968 Rises=F Damp=F
 DIIS: error= 6.95D-07 at cycle   7 NSaved=   7.
 NSaved= 7 IEnMin= 7 EnMin= -56.5553428416043     IErMin= 7 ErrMin= 6.95D-07
 ErrMax= 6.95D-07  0.00D+00 EMaxC= 1.00D-01 BMatC= 3.39D-11 BMatP= 7.27D-09
 IDIUse=1 WtCom= 1.00D+00 WtEn= 0.00D+00
 Coeff-Com:  0.175D-05-0.831D-06 0.206D-04-0.226D-02-0.637D-02 0.135D+00
 Coeff-Com:  0.873D+00
 Coeff:      0.175D-05-0.831D-06 0.206D-04-0.226D-02-0.637D-02 0.135D+00
 Coeff:      0.873D+00
 Gap=     0.203 Goal=   None    Shift=    0.000
 RMSDP=5.05D-08 MaxDP=1.41D-06 DE=-6.97D-09 OVMax= 3.23D-06

 Cycle   8  Pass 1  IDiag  1:
 E= -56.5553428416328     Delta-E=       -0.000000000028 Rises=F Damp=F
 DIIS: error= 3.59D-07 at cycle   8 NSaved=   8.
 NSaved= 8 IEnMin= 8 EnMin= -56.5553428416328     IErMin= 8 ErrMin= 3.59D-07
 ErrMax= 3.59D-07  0.00D+00 EMaxC= 1.00D-01 BMatC= 5.60D-12 BMatP= 3.39D-11
 IDIUse=1 WtCom= 1.00D+00 WtEn= 0.00D+00
 Coeff-Com: -0.590D-05 0.471D-05-0.650D-04-0.140D-03-0.105D-02-0.183D-01
 Coeff-Com:  0.330D+00 0.689D+00
 Coeff:     -0.590D-05 0.471D-05-0.650D-04-0.140D-03-0.105D-02-0.183D-01
 Coeff:      0.330D+00 0.689D+00
 Gap=     0.203 Goal=   None    Shift=    0.000
 RMSDP=1.32D-08 MaxDP=4.26D-07 DE=-2.85D-11 OVMax= 1.02D-06

 Cycle   9  Pass 1  IDiag  1:
 E= -56.5553428416390     Delta-E=       -0.000000000006 Rises=F Damp=F
 DIIS: error= 1.83D-08 at cycle   9 NSaved=   9.
 NSaved= 9 IEnMin= 9 EnMin= -56.5553428416390     IErMin= 9 ErrMin= 1.83D-08
 ErrMax= 1.83D-08  0.00D+00 EMaxC= 1.00D-01 BMatC= 1.60D-14 BMatP= 5.60D-12
 IDIUse=1 WtCom= 1.00D+00 WtEn= 0.00D+00
 Coeff-Com: -0.862D-07-0.201D-06-0.196D-05 0.274D-04 0.359D-04-0.223D-02
 Coeff-Com:  0.253D-01 0.691D-01 0.908D+00
 Coeff:     -0.862D-07-0.201D-06-0.196D-05 0.274D-04 0.359D-04-0.223D-02
 Coeff:      0.253D-01 0.691D-01 0.908D+00
 Gap=     0.203 Goal=   None    Shift=    0.000
 RMSDP=1.31D-09 MaxDP=2.64D-08 DE=-6.28D-12 OVMax= 4.38D-08

 SCF Done:  E(RB97D3) =  -56.5553428416     A.U. after    9 cycles
            NFock=  9  Conv=0.13D-08     -V/T= 2.0062
 KE= 5.620489117944D+01 PE=-1.558030144735D+02 EE= 3.114536660477D+01
 Leave Link  502 at Sat Jan 23 23:08:00 2021, MaxMem=  3221225472 cpu:              30.8 elap:               1.5
 (Enter /home/spantaleone/g16/l601.exe)
 Copying SCF densities to generalized density rwf, IOpCl= 0 IROHF=0.

 **********************************************************************

            Population analysis using the SCF Density.

 **********************************************************************

 Orbital symmetries:
       Occupied  (A) (A) (A) (A) (A)
       Virtual   (A) (A) (A) (A) (A) (A) (A) (A) (A) (A) (A) (A)
                 (A) (A) (A) (A) (A) (A) (A) (A) (A) (A) (A) (A)
                 (A) (A) (A) (A) (A) (A) (A) (A) (A) (A) (A) (A)
                 (A) (A) (A) (A) (A) (A) (A) (A) (A) (A) (A) (A)
                 (A) (A) (A) (A) (A) (A) (A) (A) (A) (A) (A) (A)
                 (A) (A) (A) (A) (A) (A) (A) (A) (A) (A) (A) (A)
                 (A) (A) (A) (A) (A) (A) (A) (A) (A) (A) (A) (A)
                 (A) (A) (A) (A) (A) (A) (A) (A) (A) (A) (A) (A)
                 (A) (A) (A) (A) (A) (A) (A) (A) (A) (A) (A) (A)
                 (A) (A)
 The electronic state is 1-A.
 Alpha  occ. eigenvalues --  -13.97738  -0.78026  -0.41618  -0.41556  -0.22673
 Alpha virt. eigenvalues --   -0.02397   0.02170   0.02183   0.06362   0.08402
 Alpha virt. eigenvalues --    0.11092   0.11108   0.11663   0.11692   0.15674
 Alpha virt. eigenvalues --    0.15700   0.16527   0.25962   0.28715   0.29570
 Alpha virt. eigenvalues --    0.29574   0.32196   0.32246   0.32302   0.38141
 Alpha virt. eigenvalues --    0.38146   0.43497   0.46603   0.46644   0.56741
 Alpha virt. eigenvalues --    0.61139   0.61142   0.64687   0.70866   0.76482
 Alpha virt. eigenvalues --    0.76571   0.76635   0.81799   0.81837   0.86954
 Alpha virt. eigenvalues --    0.88734   0.88752   0.94399   0.94886   0.94923
 Alpha virt. eigenvalues --    0.99100   0.99108   1.01955   1.05976   1.06100
 Alpha virt. eigenvalues --    1.11327   1.16073   1.16137   1.37990   1.50465
 Alpha virt. eigenvalues --    1.50599   1.51853   1.58812   1.60044   1.60110
 Alpha virt. eigenvalues --    1.73143   1.74694   1.74733   1.79546   1.79606
 Alpha virt. eigenvalues --    1.96028   2.09109   2.09223   2.09311   2.13053
 Alpha virt. eigenvalues --    2.13087   2.14619   2.98524   3.14811   3.14995
 Alpha virt. eigenvalues --    3.55362   3.58851   3.59054   3.76315   3.76385
 Alpha virt. eigenvalues --    3.78065   3.81960   3.82190   3.84390   3.92920
 Alpha virt. eigenvalues --    3.92991   3.93664   4.06941   4.09774   4.10111
 Alpha virt. eigenvalues --    4.24876   4.31001   4.31128   4.54950   4.55292
 Alpha virt. eigenvalues --    4.59513   4.59698   4.61891   4.61963   4.75544
 Alpha virt. eigenvalues --    5.13906   5.14167   5.24283   5.37843   5.38542
 Alpha virt. eigenvalues --    5.50485   5.80948   5.81248   5.91434   6.09285
 Alpha virt. eigenvalues --    6.40324   6.40345   7.11232   7.12122  16.15551
          Condensed to atoms (all electrons):
              25         26         27         28
    25  N    6.462108   0.309973   0.310009   0.309688
    26  H    0.309973   0.576111  -0.008353  -0.007863
    27  H    0.310009  -0.008353   0.576345  -0.007920
    28  H    0.309688  -0.007863  -0.007920   0.574365
 Mulliken charges:
               1
     1  H    0.000000
     2  O    0.000000
     3  H    0.000000
     4  H    0.000000
     5  O    0.000000
     6  H    0.000000
     7  H    0.000000
     8  O    0.000000
     9  H    0.000000
    10  H    0.000000
    11  O    0.000000
    12  H    0.000000
    13  H    0.000000
    14  O    0.000000
    15  H    0.000000
    16  H    0.000000
    17  O    0.000000
    18  H    0.000000
    19  H    0.000000
    20  O    0.000000
    21  H    0.000000
    22  H    0.000000
    23  O    0.000000
    24  H    0.000000
    25  N   -0.391778
    26  H    0.130131
    27  H    0.129918
    28  H    0.131730
 Sum of Mulliken charges =  -0.00000
 Mulliken charges with hydrogens summed into heavy atoms:
               1
     2  O    0.000000
     5  O    0.000000
     8  O    0.000000
    11  O    0.000000
    14  O    0.000000
    17  O    0.000000
    20  O    0.000000
    23  O    0.000000
    25  N   -0.000000
         Mulliken charges condensed to fragments:
      1      0.000000
      2     -0.000000
 Electronic spatial extent (au):  <R**2>=            296.7664
 Charge=             -0.0000 electrons
 Dipole moment (field-independent basis, Debye):
    X=             -1.3288    Y=             -0.4710    Z=              0.3511  Tot=              1.4529
 Quadrupole moment (field-independent basis, Debye-Ang):
   XX=            -11.6016   YY=             -4.9185   ZZ=             -5.3409
   XY=              1.1539   XZ=             -1.2495   YZ=             -1.2434
 Traceless Quadrupole moment (field-independent basis, Debye-Ang):
   XX=             -4.3146   YY=              2.3685   ZZ=              1.9461
   XY=              1.1539   XZ=             -1.2495   YZ=             -1.2434
 Octapole moment (field-independent basis, Debye-Ang**2):
  XXX=            -31.4638  YYY=             32.0744  ZZZ=            -30.5387  XYY=             -6.4155
  XXY=             19.8541  XXZ=            -18.3911  XZZ=             -7.7954  YZZ=             10.0378
  YYZ=             -7.3733  XYZ=              0.1332
 Hexadecapole moment (field-independent basis, Debye-Ang**3):
 XXXX=            -75.1003 YYYY=           -135.3378 ZZZZ=           -119.4315 XXXY=             56.6365
 XXXZ=            -51.8511 YYYX=             31.6288 YYYZ=             51.1744 ZZZX=            -35.2611
 ZZZY=             60.5373 XXYY=            -44.8616 XXZZ=            -41.2100 YYZZ=            -40.0758
 XXYZ=             31.1762 YYXZ=             -7.0528 ZZXY=             11.2860
 N-N= 1.189741384767D+01 E-N=-1.558030137467D+02  KE= 5.620489117944D+01
 No NMR shielding tensors so no spin-rotation constants.
 Leave Link  601 at Sat Jan 23 23:08:00 2021, MaxMem=  3221225472 cpu:               4.8 elap:               0.2
 (Enter /home/spantaleone/g16/l122.exe)
 CPIOFr:  IOpCl= 0 IRwI=-1 IRwCP=  731 ICalc=  4 LCPTot=     1095373 Len1MO=     2913475 IndFrg=    15662748
 Restoring MOs from calculation   1 to rwf.
 CPIOFr:  IOpCl= 0 IRwI=-2 IRwCP=  731 ICalc=  0 LCPTot=     1095373 Len1MO=     2913475 IndFrg=     4008848
 Counterpoise corrected energy =    -668.042733217149
                   BSSE energy =       0.000280337573
              sum of fragments =    -668.021283930244
           complexation energy =     -13.64 kcal/mole (raw)
           complexation energy =     -13.46 kcal/mole (corrected)
 Leave Link  122 at Sat Jan 23 23:08:00 2021, MaxMem=  3221225472 cpu:               4.0 elap:               0.2
 (Enter /home/spantaleone/g16/l9999.exe)
 1\1\GINC-N2690\SP\RB97D3\Aug-CC-pVTZ\H19N1O8\SPANTALEONE\23-Jan-2021\0
 \\#P B97D3/aug-cc-pvtz Counterpoise=2\\Title\\0,1\H,0,9.756822,-3.3398
 44,2.091594\O,0,9.449352,-3.120829,1.181133\H,0,10.230666,-2.929102,0.
 641742\H,0,6.749307,-3.532317,0.26282\O,0,7.309074,-4.303267,0.051731\
 H,0,8.171178,-4.026634,0.448534\H,0,7.654404,-4.030149,-1.655055\O,0,7
 .813838,-4.039572,-2.629484\H,0,7.014602,-3.602897,-2.987643\H,0,4.352
 597,-7.704217,-1.060786\O,0,4.750212,-6.991209,-0.530476\H,0,5.280497,
 -6.518083,-1.208954\H,0,6.949565,-5.599678,-2.777707\O,0,6.201196,-6.2
 34694,-2.772396\H,0,6.565237,-7.158337,-2.760554\H,0,6.50143,-5.416963
 ,1.155345\O,0,6.010978,-6.068787,1.707432\H,0,5.471095,-6.53203,1.0308
 \H,0,7.082753,-8.842707,-1.573284\O,0,6.816043,-8.83159,-2.530489\H,0,
 5.908595,-9.167328,-2.548874\H,0,7.312286,-5.834378,3.219757\O,0,7.722
 715,-5.4467,4.011191\H,0,7.201648,-4.627189,4.153529\N,0,7.79235,-8.58
 6354,0.118695\H,0,8.767593,-8.319668,0.018049\H,0,7.773061,-9.394263,0
 .733946\H,0,7.322073,-7.826418,0.607778\\Version=ES64L-G16RevB.01\Stat
 e=1-A\HF=-56.5553428\RMSD=1.314e-09\Dipole=0.9890208,1.0816562,0.35929
 62\Quadrupole=5.8350283,13.3136545,-19.1486828,6.2206755,5.5951412,2.8
 539827\PG=C01 [X(H19N1O8)]\\@


 IF THE FACTS DO NOT CONFORM TO THE THEORY, THEY MUST BE DISPOSED OF.
 Job cpu time:       0 days  7 hours  7 minutes 34.5 seconds.
 Elapsed time:       0 days  0 hours 17 minutes 51.2 seconds.
 File lengths (MBytes):  RWF=    538 Int=      0 D2E=      0 Chk=    160 Scr=      1
 Normal termination of Gaussian 16 at Sat Jan 23 23:08:01 2021.
