
                                 *****************
                                 * O   R   C   A *
                                 *****************

                                            #,                                       
                                            ###                                      
                                            ####                                     
                                            #####                                    
                                            ######                                   
                                           ########,                                 
                                     ,,################,,,,,                         
                               ,,#################################,,                 
                          ,,##########################################,,             
                       ,#########################################, ''#####,          
                    ,#############################################,,   '####,        
                  ,##################################################,,,,####,       
                ,###########''''           ''''###############################       
              ,#####''   ,,,,##########,,,,          '''####'''          '####       
            ,##' ,,,,###########################,,,                        '##       
           ' ,,###''''                  '''############,,,                           
         ,,##''                                '''############,,,,        ,,,,,,###''
      ,#''                                            '''#######################'''  
     '                                                          ''''####''''         
             ,#######,   #######,   ,#######,      ##                                
            ,#'     '#,  ##    ##  ,#'     '#,    #''#        ######   ,####,        
            ##       ##  ##   ,#'  ##            #'  '#       #        #'  '#        
            ##       ##  #######   ##           ,######,      #####,   #    #        
            '#,     ,#'  ##    ##  '#,     ,#' ,#      #,         ##   #,  ,#        
             '#######'   ##     ##  '#######'  #'      '#     #####' # '####'        



                  #######################################################
                  #                        -***-                        #
                  #          Department of theory and spectroscopy      #
                  #    Directorship and core code : Frank Neese         #
                  #        Max Planck Institute fuer Kohlenforschung    #
                  #                Kaiser Wilhelm Platz 1               #
                  #                 D-45470 Muelheim/Ruhr               #
                  #                      Germany                        #
                  #                                                     #
                  #                  All rights reserved                #
                  #                        -***-                        #
                  #######################################################


                         Program Version 5.0.2 -  RELEASE  -


 With contributions from (in alphabetic order):
   Daniel Aravena         : Magnetic Suceptibility
   Michael Atanasov       : Ab Initio Ligand Field Theory (pilot matlab implementation)
   Alexander A. Auer      : GIAO ZORA, VPT2 properties, NMR spectrum
   Ute Becker             : Parallelization
   Giovanni Bistoni       : ED, misc. LED, open-shell LED, HFLD
   Martin Brehm           : Molecular dynamics
   Dmytro Bykov           : SCF Hessian
   Vijay G. Chilkuri      : MRCI spin determinant printing, contributions to CSF-ICE
   Dipayan Datta          : RHF DLPNO-CCSD density
   Achintya Kumar Dutta   : EOM-CC, STEOM-CC
   Dmitry Ganyushin       : Spin-Orbit,Spin-Spin,Magnetic field MRCI
   Miquel Garcia          : C-PCM and meta-GGA Hessian, CC/C-PCM, Gaussian charge scheme
   Yang Guo               : DLPNO-NEVPT2, F12-NEVPT2, CIM, IAO-localization
   Andreas Hansen         : Spin unrestricted coupled pair/coupled cluster methods
   Benjamin Helmich-Paris : MC-RPA, TRAH-SCF, COSX integrals
   Lee Huntington         : MR-EOM, pCC
   Robert Izsak           : Overlap fitted RIJCOSX, COSX-SCS-MP3, EOM
   Marcus Kettner         : VPT2
   Christian Kollmar      : KDIIS, OOCD, Brueckner-CCSD(T), CCSD density, CASPT2, CASPT2-K
   Simone Kossmann        : Meta GGA functionals, TD-DFT gradient, OOMP2, MP2 Hessian
   Martin Krupicka        : Initial AUTO-CI
   Lucas Lang             : DCDCAS
   Marvin Lechner         : AUTO-CI (C++ implementation), FIC-MRCC
   Dagmar Lenk            : GEPOL surface, SMD
   Dimitrios Liakos       : Extrapolation schemes; Compound Job, initial MDCI parallelization
   Dimitrios Manganas     : Further ROCIS development; embedding schemes
   Dimitrios Pantazis     : SARC Basis sets
   Anastasios Papadopoulos: AUTO-CI, single reference methods and gradients
   Taras Petrenko         : DFT Hessian,TD-DFT gradient, ASA, ECA, R-Raman, ABS, FL, XAS/XES, NRVS
   Peter Pinski           : DLPNO-MP2, DLPNO-MP2 Gradient
   Christoph Reimann      : Effective Core Potentials
   Marius Retegan         : Local ZFS, SOC
   Christoph Riplinger    : Optimizer, TS searches, QM/MM, DLPNO-CCSD(T), (RO)-DLPNO pert. Triples
   Tobias Risthaus        : Range-separated hybrids, TD-DFT gradient, RPA, STAB
   Michael Roemelt        : Original ROCIS implementation
   Masaaki Saitow         : Open-shell DLPNO-CCSD energy and density
   Barbara Sandhoefer     : DKH picture change effects
   Avijit Sen             : IP-ROCIS
   Kantharuban Sivalingam : CASSCF convergence, NEVPT2, FIC-MRCI
   Bernardo de Souza      : ESD, SOC TD-DFT
   Georgi Stoychev        : AutoAux, RI-MP2 NMR, DLPNO-MP2 response
   Willem Van den Heuvel  : Paramagnetic NMR
   Boris Wezisla          : Elementary symmetry handling
   Frank Wennmohs         : Technical directorship


 We gratefully acknowledge several colleagues who have allowed us to
 interface, adapt or use parts of their codes:
   Stefan Grimme, W. Hujo, H. Kruse, P. Pracht,  : VdW corrections, initial TS optimization,
                  C. Bannwarth, S. Ehlert          DFT functionals, gCP, sTDA/sTD-DF
   Ed Valeev, F. Pavosevic, A. Kumar             : LibInt (2-el integral package), F12 methods
   Garnet Chan, S. Sharma, J. Yang, R. Olivares  : DMRG
   Ulf Ekstrom                                   : XCFun DFT Library
   Mihaly Kallay                                 : mrcc  (arbitrary order and MRCC methods)
   Jiri Pittner, Ondrej Demel                    : Mk-CCSD
   Frank Weinhold                                : gennbo (NPA and NBO analysis)
   Christopher J. Cramer and Donald G. Truhlar   : smd solvation model
   Lars Goerigk                                  : TD-DFT with DH, B97 family of functionals
   V. Asgeirsson, H. Jonsson                     : NEB implementation
   FAccTs GmbH                                   : IRC, NEB, NEB-TS, DLPNO-Multilevel, CI-OPT
                                                   MM, QMMM, 2- and 3-layer-ONIOM, Crystal-QMMM,
                                                   LR-CPCM, SF, NACMEs, symmetry and pop. for TD-DFT,
                                                   nearIR, NL-DFT gradient (VV10), updates on ESD,
                                                   ML-optimized integration grids
   S Lehtola, MJT Oliveira, MAL Marques          : LibXC Library
   Liviu Ungur et al                             : ANISO software


 Your calculation uses the libint2 library for the computation of 2-el integrals
 For citations please refer to: http://libint.valeyev.net

 Your ORCA version has been built with support for libXC version: 5.1.0
 For citations please refer to: https://tddft.org/programs/libxc/

 This ORCA versions uses:
   CBLAS   interface :  Fast vector & matrix operations
   LAPACKE interface :  Fast linear algebra routines
   SCALAPACK package :  Parallel linear algebra routines
   Shared memory     :  Shared parallel matrices
   BLAS/LAPACK       :  OpenBLAS 0.3.15  USE64BITINT DYNAMIC_ARCH NO_AFFINITY Haswell SINGLE_THREADED
        Core in use  :  Haswell
   Copyright (c) 2011-2014, The OpenBLAS Project




***************************************
The coordinates will be read from file: opt_full_ref.xyz
***************************************


Your calculation utilizes the semiempirical GFN2-xTB method
Please cite in your paper:
C. Bannwarth, Ehlert S., S. Grimme,  J. Chem. Theory Comput., 15, (2019), 1652.
   

Preparing ONIOM calculation             ...         done
================================================================================

================================================================================
                                        WARNINGS
                       Please study these warnings very carefully!
================================================================================

WARNING: Gradients needed for Numerical Frequencies
  ===> : Setting RunTyp to EnGrad

WARNING: Found dipole moment calculation with XTB calculation
  ===> : Switching off dipole moment calculation


WARNING: TRAH-SCF for XTB is not implemented!
  ===> : Turning TRAH off!

================================================================================
                                       INPUT FILE
================================================================================
NAME = oniom.inp
|  1> !QM/XTB2 XTB2
|  2> !NumFreq
|  3> %pal
|  4> nprocs 28
|  5> end
|  6> %qmmm
|  7> QMAtoms {18 19 20 45 46 47 54 55 56 72 73 74 75 76 77 108 109 110 117 118 119 132 133 134 135 136 137 138 139 140 165 166 167 177 178 179 249 250 251 264 265 266 285 286 287 321 322 323 324 325 326 363 364 365 390 391 392 408 409 410 471 472 473 474 475 476 504 505 506 567 568 569 582 583 584 } end
|  8> ActiveAtoms {18 19 20 45 46 47 54 55 56 72 73 74 75 76 77 108 109 110 117 118 119 132 133 134 135 136 137 138 139 140 165 166 167 177 178 179 249 250 251 264 265 266 285 286 287 321 322 323 324 325 326 363 364 365 390 391 392 408 409 410 471 472 473 474 475 476 504 505 506 567 568 569 582 583 584 } end
|  9> ExtendActiveRegion no
| 10> end
| 11> *xyzfile 0 1 opt_full_ref.xyz 
| 12> 
| 13> 
| 14>                          ****END OF INPUT****
================================================================================

------------------------------------------------------------------------------

                             **************************
                             *    2-layered ONIOM     *
                             **************************


------------------------------------------------------------------------------




Multiscale model                       ... QM1/QM2
QM2 method                             ... XTB2
Coupling Scheme                        ... subtractive
Embedding Scheme                       ... electrostatic
PrintLevel                             ... 1
Method for determining QM2 charges     ... Hirshfeld
Charge of total system                 ... 0
Charge alteration scheme               ... Charge shifting
Scaling factor for CS scheme           ... 0.06
Gradient projection scheme             ... Lever rule
Scaling factor for QM2 charges         ... 1.00
AutoFF method                          ... XTB2
AutoFF boundary                        ... no covalent bonds
Point charges in QM calc. from MM atoms... 525
              from charge shift scheme ... 0
Printing trajectories, xyz and allxyz files:
        QMMMRegion                     ... YES
        activeRegion                   ... YES
        activeRegionExt                ... NO
        qmRegion                       ... YES
        qm2Region                      ... NO
Parameter files:
        ORCA Forcefield Filename       ... oniom_L_QM2.ORCAFF.prms.tmp
        QM-LA bond distances Filename  ... oniom.H_DIST.prms.tmp
Forcefield type                        ... ORCA
Size of different subsystems (in atoms):
Size of QMMM System                    ... 600
Size of QM2 Subsystem                  ... 525
Size of QM1 Subsystem                  ... 75
Number of link atoms                   ... 0
Size of QM1 Subsystem plus link atoms  ... 75
Size of region for optimizer           ... 75
        optimized atoms = activeRegion ... 75
        fixed atoms (none)             ... 0
Composition of different systems (atoms start counting at 0):
QM1 Subsystem                          ...  18  19  20  45  46  47  54  55  56  72 
                                            73  74  75  76  77 108 109 110 117 118 
                                           119 132 133 134 135 136 137 138 139 140 
                                           165 166 167 177 178 179 249 250 251 264 
                                           265 266 285 286 287 321 322 323 324 325 
                                           326 363 364 365 390 391 392 408 409 410 
                                           471 472 473 474 475 476 504 505 506 567 
                                           568 569 582 583 584 
Active atoms                           ...  18  19  20  45  46  47  54  55  56  72 
                                            73  74  75  76  77 108 109 110 117 118 
                                           119 132 133 134 135 136 137 138 139 140 
                                           165 166 167 177 178 179 249 250 251 264 
                                           265 266 285 286 287 321 322 323 324 325 
                                           326 363 364 365 390 391 392 408 409 410 
                                           471 472 473 474 475 476 504 505 506 567 
                                           568 569 582 583 584 

                     *******************************
                     * Energy+Gradient Calculation *
                     *******************************

                    ************************************                      
                    *       QM/   XTB2 SP Energy       *                      
                    ************************************                      


------------------------------------------------------------------------------
                          XTB2 - FULL SYSTEM                         
------------------------------------------------------------------------------
Running XTB calculation
---------------------------------   --------------------
FINAL SINGLE POINT ENERGY (L-QM2)    -1018.346688484610
---------------------------------   --------------------
------------------------------------------------------------------------------
                                  XTB2 - SMALL SYSTEM                         
------------------------------------------------------------------------------
Running XTB calculation
---------------------------------   --------------------
FINAL SINGLE POINT ENERGY (S-QM2)     -127.302925841920
---------------------------------   --------------------
------------------------------------------------------------------------------
                                QM - SMALL SYSTEM                           
------------------------------------------------------------------------------
      -----------------------------------------------------------      
     |                   =====================                   |     
     |                           x T B                           |     
     |                   =====================                   |     
     |                         S. Grimme                         |     
     |          Mulliken Center for Theoretical Chemistry        |     
     |                    University of Bonn                     |     
      -----------------------------------------------------------      

   * xtb version 6.4.0 (d4b70c2) compiled by 'ehlert@majestix' on 2021-02-01

   xtb is free software: you can redistribute it and/or modify it under
   the terms of the GNU Lesser General Public License as published by
   the Free Software Foundation, either version 3 of the License, or
   (at your option) any later version.
   
   xtb is distributed in the hope that it will be useful,
   but WITHOUT ANY WARRANTY; without even the implied warranty of
   MERCHANTABILITY or FITNESS FOR A PARTICULAR PURPOSE.  See the
   GNU Lesser General Public License for more details.
   
   Cite this work as:
   * C. Bannwarth, E. Caldeweyher, S. Ehlert, A. Hansen, P. Pracht,
     J. Seibert, S. Spicher, S. Grimme, WIREs Comput. Mol. Sci., 2020,
     e01493. DOI: 10.1002/wcms.1493
   
   for GFN2-xTB:
   * C. Bannwarth, S. Ehlert and S. Grimme., J. Chem. Theory Comput., 2019,
     15, 1652-1671. DOI: 10.1021/acs.jctc.8b01176
   for GFN1-xTB:
   * S. Grimme, C. Bannwarth, P. Shushkov, J. Chem. Theory Comput., 2017,
     13, 1989-2009. DOI: 10.1021/acs.jctc.7b00118
   for GFN0-xTB:
   * P. Pracht, E. Caldeweyher, S. Ehlert, S. Grimme, ChemRxiv, 2019, preprint.
     DOI: 10.26434/chemrxiv.8326202.v1
   for GFN-FF:
   * S. Spicher and S. Grimme, Angew. Chem. Int. Ed., 2020, 59, 15665-15673.
     DOI: 10.1002/anie.202004239
   
   for DFT-D4:
   * E. Caldeweyher, C. Bannwarth and S. Grimme, J. Chem. Phys., 2017,
     147, 034112. DOI: 10.1063/1.4993215
   * E. Caldeweyher, S. Ehlert, A. Hansen, H. Neugebauer, S. Spicher,
     C. Bannwarth and S. Grimme, J. Chem. Phys., 2019, 150, 154122.
     DOI: 10.1063/1.5090222
   * E. Caldeweyher, J.-M. Mewes, S. Ehlert and S. Grimme, Phys. Chem. Chem. Phys.
     2020, 22, 8499-8512. DOI: 10.1039/D0CP00502A
   
   for sTDA-xTB:
   * S. Grimme and C. Bannwarth, J. Chem. Phys., 2016, 145, 054103.
     DOI: 10.1063/1.4959605
   
   in the mass-spec context:
   * V. Asgeirsson, C. Bauer and S. Grimme, Chem. Sci., 2017, 8, 4879.
     DOI: 10.1039/c7sc00601b
   * J. Koopman and S. Grimme, ACS Omega 2019, 4, 12, 15120-15133.
     DOI: 10.1021/acsomega.9b02011
   
   for metadynamics refer to:
   * S. Grimme, J. Chem. Theory Comput., 2019, 155, 2847-2862
     DOI: 10.1021/acs.jctc.9b00143
   
   with help from (in alphabetical order)
   P. Atkinson, C. Bannwarth, F. Bohle, G. Brandenburg, E. Caldeweyher
   M. Checinski, S. Dohm, S. Ehlert, S. Ehrlich, I. Gerasimov, J. Koopman
   C. Lavinge, S. Lehtola, F. März, M. Müller, F. Musil, H. Neugebauer
   J. Pisarek, P. Pracht, J. Seibert, P. Shushkov, S. Spicher, M. Stahn
   T. Strunk, J. Stückrath, T. Rose, and J. Unsleber
   
 * started run on 2022/04/11 at 10:15:16.722     

           -------------------------------------------------
          |                Calculation Setup                |
           -------------------------------------------------

          program call               : /work/spantaleone/apps/orca/ORCA_5.0.2/otool_xtb oniom_XTB.xyz --grad -c 0 -u 0 -P 28 --namespace oniom --input oniom_XTB.input.tmp --acc 1.000000
          hostname                   : n3643
          calculation namespace      : oniom
          coordinate file            : oniom_XTB.xyz
          omp threads                :                    28
          number of atoms            :                    75
          number of electrons        :                   200
          charge                     :                     0
          spin                       :                   0.0
          first test random number   :      0.99682691168519

   ID    Z sym.   atoms
    1    1 H      1, 3, 4, 6, 7, 9, 10, 12, 13, 15, 16, 18, 19, 21, 22, 24,
                  25, 27, 28, 30, 31, 33, 34, 36, 37, 39, 40, 42, 43, 45, 46,
                  48, 49, 51, 52, 54, 55, 57, 58, 60, 61, 63, 64, 66, 67, 69,
                  70, 72, 73, 75
    2    8 O      2, 5, 8, 11, 14, 17, 20, 23, 26, 29, 32, 35, 38, 41, 44,
                  47, 50, 53, 56, 59, 62, 65, 68, 71, 74

molecular fragmentation (1/2 indicates fragments):
111222222222222222222222222222222222222222222222222222222222222222222222
222
# atoms in fragment 1/2:     3    72
 fragment masses (1/2) :       18.02      432.37
CMA distance (Bohr)    :   9.080
constraining FC (au)   :  0.0500
########################################################################
[WARNING] Please study the warnings concerning your input carefully
-1- prog_main_parseArguments: Process number higher than OMP_NUM_THREADS, I hope you know what you are doing.
########################################################################

           -------------------------------------------------
          |                 G F N 2 - x T B                 |
           -------------------------------------------------

        Reference                      10.1021/acs.jctc.8b01176
      * Hamiltonian:
        H0-scaling (s, p, d)           1.850000    2.230000    2.230000
        zeta-weighting                 0.500000
      * Dispersion:
        s8                             2.700000
        a1                             0.520000
        a2                             5.000000
        s9                             5.000000
      * Repulsion:
        kExp                           1.500000    1.000000
        rExp                           1.000000
      * Coulomb:
        alpha                          2.000000
        third order                    shell-resolved
        anisotropic                    true
        a3                             3.000000
        a5                             4.000000
        cn-shift                       1.200000
        cn-exp                         4.000000
        max-rad                        5.000000


          ...................................................
          :                      SETUP                      :
          :.................................................:
          :  # basis functions                 150          :
          :  # atomic orbitals                 150          :
          :  # shells                          100          :
          :  # electrons                       200          :
          :  max. iterations                   250          :
          :  Hamiltonian                  GFN2-xTB          :
          :  restarted?                      false          :
          :  GBSA solvation                  false          :
          :  PC potential                     true          :
          :  -> # point charges                525          :
          :  -> sum of PC               -0.0000009     e    :
          :  electronic temp.          300.0000000     K    :
          :  accuracy                    1.0000000          :
          :  -> integral cutoff          0.2500000E+02      :
          :  -> integral neglect         0.1000000E-07      :
          :  -> SCF convergence          0.1000000E-05 Eh   :
          :  -> wf. convergence          0.1000000E-03 e    :
          :  Broyden damping             0.4000000          :
          ...................................................

 iter      E             dE          RMSdq      gap      omega  full diag
   1   -128.0083423 -0.128008E+03  0.416E+00    9.72       0.0  T
   2   -128.0405769 -0.322346E-01  0.240E+00   10.10       1.0  T
   3   -128.0470133 -0.643634E-02  0.363E-01    9.52       1.0  T
   4   -128.0485304 -0.151717E-02  0.846E-02    9.67       1.0  T
   5   -128.0486425 -0.112035E-03  0.362E-02    9.65       1.0  T
   6   -128.0486551 -0.126636E-04  0.539E-03    9.67       2.1  T
   7   -128.0486555 -0.367456E-06  0.117E-03    9.67       9.8  T
   8   -128.0486555 -0.298814E-08  0.777E-04    9.67      14.9  T
   9   -128.0486555 -0.877387E-08  0.758E-05    9.67     152.3  T

   *** convergence criteria satisfied after 9 iterations ***

         #    Occupation            Energy/Eh            Energy/eV
      -------------------------------------------------------------
         1        2.0000           -0.7062106             -19.2170
       ...           ...                  ...                  ...
        94        2.0000           -0.4402313             -11.9793
        95        2.0000           -0.4375083             -11.9052
        96        2.0000           -0.4374143             -11.9026
        97        2.0000           -0.4361291             -11.8677
        98        2.0000           -0.4334081             -11.7936
        99        2.0000           -0.4275784             -11.6350
       100        2.0000           -0.4234296             -11.5221 (HOMO)
       101                         -0.0682415              -1.8569 (LUMO)
       102                         -0.0335507              -0.9130
       103                         -0.0179650              -0.4889
       104                         -0.0029451              -0.0801
       105                          0.0154680               0.4209
       ...                                ...                  ...
       150                          0.3535672               9.6211
      -------------------------------------------------------------
                  HL-Gap            0.3551882 Eh            9.6652 eV
             Fermi-level           -0.2458355 Eh           -6.6895 eV

 SCC (total)                   0 d,  0 h,  0 min,  0.071 sec
 SCC setup                      ...        0 min,  0.001 sec (  1.172%)
 Dispersion                     ...        0 min,  0.001 sec (  1.643%)
 classical contributions        ...        0 min,  0.000 sec (  0.113%)
 integral evaluation            ...        0 min,  0.013 sec ( 17.812%)
 iterations                     ...        0 min,  0.043 sec ( 60.676%)
 molecular gradient             ...        0 min,  0.012 sec ( 17.602%)
 printout                       ...        0 min,  0.001 sec (  0.728%)

         :::::::::::::::::::::::::::::::::::::::::::::::::::::
         ::                     SUMMARY                     ::
         :::::::::::::::::::::::::::::::::::::::::::::::::::::
         :: total energy            -127.302925841920 Eh    ::
         :: gradient norm              0.074983035432 Eh/a0 ::
         :: HOMO-LUMO gap              9.665162542210 eV    ::
         ::.................................................::
         :: SCC energy              -128.048655505731 Eh    ::
         :: -> isotropic ES            0.865946766350 Eh    ::
         :: -> anisotropic ES         -0.114597778834 Eh    ::
         :: -> anisotropic XC         -0.011552958850 Eh    ::
         :: -> dispersion             -0.045096213994 Eh    ::
         :: repulsion energy           0.742947887823 Eh    ::
         :: add. restraining           0.000000000000 Eh    ::
         :: total charge               0.000000000000 e     ::
         :::::::::::::::::::::::::::::::::::::::::::::::::::::


Property printout bound to 'properties.out'

           -------------------------------------------------
          | TOTAL ENERGY             -127.302925841920 Eh   |
          | GRADIENT NORM               0.074983035432 Eh/α |
          | HOMO-LUMO GAP               9.665162542210 eV   |
           -------------------------------------------------

------------------------------------------------------------------------
 * finished run on 2022/04/11 at 10:15:16.856     
------------------------------------------------------------------------
 total:
 * wall-time:     0 d,  0 h,  0 min,  0.134 sec
 *  cpu-time:     0 d,  0 h,  0 min,  3.408 sec
 * ratio c/w:    25.515 speedup
 SCF:
 * wall-time:     0 d,  0 h,  0 min,  0.075 sec
 *  cpu-time:     0 d,  0 h,  0 min,  2.076 sec
 * ratio c/w:    27.684 speedup


-------------------------   --------------------
FINAL SINGLE POINT ENERGY      -127.302925841920
-------------------------   --------------------



--------------------------------------   --------------------
FINAL SINGLE POINT ENERGY (QM/QM2)    -1018.346688484610
--------------------------------------   --------------------

                    ************************************                      
                    *QM/   XTB2 SP Gradient Calculation*                      
                    ************************************                      


------------------------------------------------------------------------------
                          XTB2 - FULL SYSTEM                         
------------------------------------------------------------------------------
Reading gradient                        ...         done
------------------------------------------------------------------------------
                                  XTB2 - SMALL SYSTEM                         
------------------------------------------------------------------------------
Reading gradient                        ...         done
------------------------------------------------------------------------------
                                     QM                                       
------------------------------------------------------------------------------


------------------
CARTESIAN GRADIENT (QM/MM)
------------------
   1   H   :    0.000002565   -0.000002563   -0.000000335
   2   O   :   -0.000000013    0.000002712    0.000005656
   3   H   :    0.000000046   -0.000000731    0.000006067
   4   H   :    0.000009829    0.000004386   -0.000001857
   5   O   :   -0.000001051   -0.000005624   -0.000013328
   6   H   :   -0.000005191   -0.000011240   -0.000008131
   7   H   :   -0.000008183    0.000000428    0.000006009
   8   O   :   -0.000005893    0.000000816    0.000000893
   9   H   :    0.000006018   -0.000005865   -0.000002536
  10   H   :    0.000000635   -0.000001572    0.000005905
  11   O   :    0.000000930   -0.000002943   -0.000004699
  12   H   :    0.000002982   -0.000001605   -0.000005674
  13   H   :   -0.000001165   -0.000010329   -0.000001756
  14   O   :    0.000001920    0.000000238    0.000005508
  15   H   :    0.000005013   -0.000002635   -0.000001160
  16   H   :   -0.000006736    0.000002814    0.000004109
  17   O   :    0.000000603    0.000001930   -0.000005460
  18   H   :    0.000001275   -0.000014756    0.000004214
  19   H   :   -0.000008163    0.000016893   -0.000000071
  20   O   :    0.000003490    0.000006024   -0.000001761
  21   H   :   -0.000008158   -0.000004852   -0.000003546
  22   H   :   -0.000010515   -0.000005495   -0.000001911
  23   O   :    0.000001022    0.000009078    0.000000123
  24   H   :    0.000012608   -0.000001565    0.000011471
  25   H   :    0.000011166    0.000005702    0.000020789
  26   O   :   -0.000017669   -0.000022982    0.000003790
  27   H   :   -0.000001020    0.000003718   -0.000031344
  28   H   :   -0.000005432   -0.000010823    0.000005251
  29   O   :    0.000006067    0.000001081    0.000002856
  30   H   :   -0.000006658    0.000000068   -0.000003835
  31   H   :    0.000000927   -0.000002578    0.000003684
  32   O   :   -0.000000114   -0.000001553    0.000005536
  33   H   :    0.000000727   -0.000007597    0.000001845
  34   H   :   -0.000007570   -0.000011467   -0.000006417
  35   O   :    0.000024669    0.000013506    0.000004285
  36   H   :   -0.000022697    0.000010032   -0.000002185
  37   H   :    0.000014187   -0.000004997    0.000008704
  38   O   :   -0.000004307   -0.000004999    0.000009217
  39   H   :    0.000000992   -0.000014617   -0.000002704
  40   H   :   -0.000011781   -0.000004536   -0.000013596
  41   O   :    0.000007178    0.000013926    0.000022893
  42   H   :    0.000009143   -0.000004301   -0.000006494
  43   H   :    0.000005031    0.000000879   -0.000000843
  44   O   :    0.000013758    0.000002146    0.000005376
  45   H   :    0.000003731    0.000003714   -0.000002616
  46   H   :    0.000009948   -0.000008512   -0.000012427
  47   O   :   -0.000005661   -0.000005215   -0.000006663
  48   H   :    0.000000003   -0.000002360    0.000009246
  49   H   :   -0.000006005    0.000011527   -0.000003523
  50   O   :    0.000002176    0.000018300    0.000000350
  51   H   :    0.000016827    0.000000218    0.000004551
  52   H   :   -0.000000550    0.000004091   -0.000006669
  53   O   :    0.000001829    0.000009613   -0.000009405
  54   H   :    0.000005763   -0.000008536    0.000001678
  55   H   :    0.000004647   -0.000011579   -0.000006413
  56   O   :    0.000002384    0.000002592    0.000010877
  57   H   :    0.000000830    0.000006040   -0.000003125
  58   H   :    0.000008090   -0.000000174    0.000000668
  59   O   :   -0.000002977   -0.000001582   -0.000008891
  60   H   :   -0.000002845   -0.000002060    0.000002683
  61   H   :    0.000004845    0.000004184   -0.000007251
  62   O   :   -0.000012067    0.000003217   -0.000006726
  63   H   :    0.000011635   -0.000002884    0.000002975
  64   H   :    0.000004358    0.000003190   -0.000007083
  65   O   :   -0.000000045    0.000004893    0.000008120
  66   H   :    0.000003063   -0.000000567    0.000004008
  67   H   :   -0.000011823   -0.000009590   -0.000003279
  68   O   :   -0.000006940    0.000008233    0.000002478
  69   H   :    0.000011430    0.000004526   -0.000010612
  70   H   :   -0.000004306   -0.000001369    0.000000744
  71   O   :    0.000000472   -0.000002758    0.000004615
  72   H   :    0.000009391   -0.000005973   -0.000002361
  73   H   :   -0.000013933   -0.000008063    0.000003203
  74   O   :   -0.000003592    0.000006445   -0.000004020
  75   H   :   -0.000004248    0.000001774   -0.000006081

Norm of the cartesian gradient     ...    0.000115349
RMS gradient                       ...    0.000007690
MAX gradient                       ...    0.000031344

----------------------------------------------------------------------------
                           ORCA NUMERICAL FREQUENCIES
                              (28-process run)
----------------------------------------------------------------------------

Number of atoms                ... 75
Central differences            ... used
Number of displacements        ... 450
Numerical increment            ... 5.000e-03 bohr
IR-spectrum generation         ... on
Raman-spectrum generation      ... off
Surface Crossing Hessian       ... off

The output will be reduced. Please look at the following files:
SCF program output             ... >oniom.lastscf
Integral program output        ... >oniom.lastint
Gradient program output        ... >oniom.lastgrad
Dipole moment program output   ... >oniom.lastmom
AutoCI program output          ... >oniom.lastautoci

List of participating nodes    ...  oniom.hostnames
	<< Calculating on displaced geometry   8 (of 450) >>
	<< Calculating on displaced geometry  14 (of 450) >>
	<< Calculating on displaced geometry  24 (of 450) >>
	<< Calculating on displaced geometry  28 (of 450) >>
	<< Calculating on displaced geometry  20 (of 450) >>
	<< Calculating on displaced geometry  13 (of 450) >>
	<< Calculating on displaced geometry  25 (of 450) >>
	<< Calculating on displaced geometry   7 (of 450) >>
	<< Calculating on displaced geometry  21 (of 450) >>
	<< Calculating on displaced geometry  16 (of 450) >>
	<< Calculating on displaced geometry  17 (of 450) >>
	<< Calculating on displaced geometry  11 (of 450) >>
	<< Calculating on displaced geometry   6 (of 450) >>
	<< Calculating on displaced geometry  23 (of 450) >>
	<< Calculating on displaced geometry   1 (of 450) >>
	<< Calculating on displaced geometry  15 (of 450) >>
	<< Calculating on displaced geometry   5 (of 450) >>
	<< Calculating on displaced geometry   3 (of 450) >>
	<< Calculating on displaced geometry  27 (of 450) >>
	<< Calculating on displaced geometry  22 (of 450) >>
	<< Calculating on displaced geometry  18 (of 450) >>
	<< Calculating on displaced geometry  26 (of 450) >>
	<< Calculating on displaced geometry  12 (of 450) >>
	<< Calculating on displaced geometry   9 (of 450) >>
	<< Calculating on displaced geometry   4 (of 450) >>
	<< Calculating on displaced geometry   2 (of 450) >>
	<< Calculating on displaced geometry  19 (of 450) >>
	<< Calculating on displaced geometry  10 (of 450) >>
	<< Calculating on displaced geometry  29 (of 450) >>
	<< Calculating on displaced geometry  30 (of 450) >>
	<< Calculating on displaced geometry  31 (of 450) >>
	<< Calculating on displaced geometry  32 (of 450) >>
	<< Calculating on displaced geometry  33 (of 450) >>
	<< Calculating on displaced geometry  34 (of 450) >>
	<< Calculating on displaced geometry  36 (of 450) >>
	<< Calculating on displaced geometry  35 (of 450) >>
	<< Calculating on displaced geometry  37 (of 450) >>
	<< Calculating on displaced geometry  39 (of 450) >>
	<< Calculating on displaced geometry  40 (of 450) >>
	<< Calculating on displaced geometry  38 (of 450) >>
	<< Calculating on displaced geometry  42 (of 450) >>
	<< Calculating on displaced geometry  43 (of 450) >>
	<< Calculating on displaced geometry  44 (of 450) >>
	<< Calculating on displaced geometry  41 (of 450) >>
	<< Calculating on displaced geometry  45 (of 450) >>
	<< Calculating on displaced geometry  46 (of 450) >>
	<< Calculating on displaced geometry  47 (of 450) >>
	<< Calculating on displaced geometry  52 (of 450) >>
	<< Calculating on displaced geometry  50 (of 450) >>
	<< Calculating on displaced geometry  51 (of 450) >>
	<< Calculating on displaced geometry  55 (of 450) >>
	<< Calculating on displaced geometry  49 (of 450) >>
	<< Calculating on displaced geometry  48 (of 450) >>
	<< Calculating on displaced geometry  56 (of 450) >>
	<< Calculating on displaced geometry  53 (of 450) >>
	<< Calculating on displaced geometry  54 (of 450) >>
	<< Calculating on displaced geometry  57 (of 450) >>
	<< Calculating on displaced geometry  58 (of 450) >>
	<< Calculating on displaced geometry  59 (of 450) >>
	<< Calculating on displaced geometry  60 (of 450) >>
	<< Calculating on displaced geometry  61 (of 450) >>
	<< Calculating on displaced geometry  62 (of 450) >>
	<< Calculating on displaced geometry  63 (of 450) >>
	<< Calculating on displaced geometry  65 (of 450) >>
	<< Calculating on displaced geometry  64 (of 450) >>
	<< Calculating on displaced geometry  66 (of 450) >>
	<< Calculating on displaced geometry  67 (of 450) >>
	<< Calculating on displaced geometry  68 (of 450) >>
	<< Calculating on displaced geometry  69 (of 450) >>
	<< Calculating on displaced geometry  70 (of 450) >>
	<< Calculating on displaced geometry  71 (of 450) >>
	<< Calculating on displaced geometry  74 (of 450) >>
	<< Calculating on displaced geometry  75 (of 450) >>
	<< Calculating on displaced geometry  72 (of 450) >>
	<< Calculating on displaced geometry  73 (of 450) >>
	<< Calculating on displaced geometry  79 (of 450) >>
	<< Calculating on displaced geometry  76 (of 450) >>
	<< Calculating on displaced geometry  80 (of 450) >>
	<< Calculating on displaced geometry  77 (of 450) >>
	<< Calculating on displaced geometry  78 (of 450) >>
	<< Calculating on displaced geometry  81 (of 450) >>
	<< Calculating on displaced geometry  82 (of 450) >>
	<< Calculating on displaced geometry  84 (of 450) >>
	<< Calculating on displaced geometry  83 (of 450) >>
	<< Calculating on displaced geometry  85 (of 450) >>
	<< Calculating on displaced geometry  86 (of 450) >>
	<< Calculating on displaced geometry  87 (of 450) >>
	<< Calculating on displaced geometry  88 (of 450) >>
	<< Calculating on displaced geometry  89 (of 450) >>
	<< Calculating on displaced geometry  91 (of 450) >>
	<< Calculating on displaced geometry  90 (of 450) >>
	<< Calculating on displaced geometry  92 (of 450) >>
	<< Calculating on displaced geometry  93 (of 450) >>
	<< Calculating on displaced geometry  94 (of 450) >>
	<< Calculating on displaced geometry  95 (of 450) >>
	<< Calculating on displaced geometry  96 (of 450) >>
	<< Calculating on displaced geometry  98 (of 450) >>
	<< Calculating on displaced geometry  97 (of 450) >>
	<< Calculating on displaced geometry  99 (of 450) >>
	<< Calculating on displaced geometry 100 (of 450) >>
	<< Calculating on displaced geometry 101 (of 450) >>
	<< Calculating on displaced geometry 103 (of 450) >>
	<< Calculating on displaced geometry 102 (of 450) >>
	<< Calculating on displaced geometry 104 (of 450) >>
	<< Calculating on displaced geometry 106 (of 450) >>
	<< Calculating on displaced geometry 108 (of 450) >>
	<< Calculating on displaced geometry 110 (of 450) >>
	<< Calculating on displaced geometry 111 (of 450) >>
	<< Calculating on displaced geometry 112 (of 450) >>
	<< Calculating on displaced geometry 105 (of 450) >>
	<< Calculating on displaced geometry 107 (of 450) >>
	<< Calculating on displaced geometry 109 (of 450) >>
	<< Calculating on displaced geometry 113 (of 450) >>
	<< Calculating on displaced geometry 114 (of 450) >>
	<< Calculating on displaced geometry 115 (of 450) >>
	<< Calculating on displaced geometry 116 (of 450) >>
	<< Calculating on displaced geometry 117 (of 450) >>
	<< Calculating on displaced geometry 121 (of 450) >>
	<< Calculating on displaced geometry 120 (of 450) >>
	<< Calculating on displaced geometry 119 (of 450) >>
	<< Calculating on displaced geometry 122 (of 450) >>
	<< Calculating on displaced geometry 118 (of 450) >>
	<< Calculating on displaced geometry 123 (of 450) >>
	<< Calculating on displaced geometry 124 (of 450) >>
	<< Calculating on displaced geometry 125 (of 450) >>
	<< Calculating on displaced geometry 126 (of 450) >>
	<< Calculating on displaced geometry 127 (of 450) >>
	<< Calculating on displaced geometry 128 (of 450) >>
	<< Calculating on displaced geometry 129 (of 450) >>
	<< Calculating on displaced geometry 131 (of 450) >>
	<< Calculating on displaced geometry 132 (of 450) >>
	<< Calculating on displaced geometry 130 (of 450) >>
	<< Calculating on displaced geometry 133 (of 450) >>
	<< Calculating on displaced geometry 134 (of 450) >>
	<< Calculating on displaced geometry 136 (of 450) >>
	<< Calculating on displaced geometry 138 (of 450) >>
	<< Calculating on displaced geometry 140 (of 450) >>
	<< Calculating on displaced geometry 137 (of 450) >>
	<< Calculating on displaced geometry 139 (of 450) >>
	<< Calculating on displaced geometry 135 (of 450) >>
	<< Calculating on displaced geometry 141 (of 450) >>
	<< Calculating on displaced geometry 142 (of 450) >>
	<< Calculating on displaced geometry 143 (of 450) >>
	<< Calculating on displaced geometry 144 (of 450) >>
	<< Calculating on displaced geometry 145 (of 450) >>
	<< Calculating on displaced geometry 146 (of 450) >>
	<< Calculating on displaced geometry 147 (of 450) >>
	<< Calculating on displaced geometry 149 (of 450) >>
	<< Calculating on displaced geometry 148 (of 450) >>
	<< Calculating on displaced geometry 150 (of 450) >>
	<< Calculating on displaced geometry 151 (of 450) >>
	<< Calculating on displaced geometry 154 (of 450) >>
	<< Calculating on displaced geometry 153 (of 450) >>
	<< Calculating on displaced geometry 157 (of 450) >>
	<< Calculating on displaced geometry 156 (of 450) >>
	<< Calculating on displaced geometry 155 (of 450) >>
	<< Calculating on displaced geometry 152 (of 450) >>
	<< Calculating on displaced geometry 158 (of 450) >>
	<< Calculating on displaced geometry 160 (of 450) >>
	<< Calculating on displaced geometry 161 (of 450) >>
	<< Calculating on displaced geometry 159 (of 450) >>
	<< Calculating on displaced geometry 162 (of 450) >>
	<< Calculating on displaced geometry 165 (of 450) >>
	<< Calculating on displaced geometry 164 (of 450) >>
	<< Calculating on displaced geometry 163 (of 450) >>
	<< Calculating on displaced geometry 168 (of 450) >>
	<< Calculating on displaced geometry 167 (of 450) >>
	<< Calculating on displaced geometry 166 (of 450) >>
	<< Calculating on displaced geometry 169 (of 450) >>
	<< Calculating on displaced geometry 170 (of 450) >>
	<< Calculating on displaced geometry 171 (of 450) >>
	<< Calculating on displaced geometry 172 (of 450) >>
	<< Calculating on displaced geometry 173 (of 450) >>
	<< Calculating on displaced geometry 174 (of 450) >>
	<< Calculating on displaced geometry 175 (of 450) >>
	<< Calculating on displaced geometry 176 (of 450) >>
	<< Calculating on displaced geometry 177 (of 450) >>
	<< Calculating on displaced geometry 179 (of 450) >>
	<< Calculating on displaced geometry 178 (of 450) >>
	<< Calculating on displaced geometry 180 (of 450) >>
	<< Calculating on displaced geometry 181 (of 450) >>
	<< Calculating on displaced geometry 182 (of 450) >>
	<< Calculating on displaced geometry 183 (of 450) >>
	<< Calculating on displaced geometry 184 (of 450) >>
	<< Calculating on displaced geometry 185 (of 450) >>
	<< Calculating on displaced geometry 187 (of 450) >>
	<< Calculating on displaced geometry 186 (of 450) >>
	<< Calculating on displaced geometry 188 (of 450) >>
	<< Calculating on displaced geometry 189 (of 450) >>
	<< Calculating on displaced geometry 190 (of 450) >>
	<< Calculating on displaced geometry 192 (of 450) >>
	<< Calculating on displaced geometry 193 (of 450) >>
	<< Calculating on displaced geometry 191 (of 450) >>
	<< Calculating on displaced geometry 195 (of 450) >>
	<< Calculating on displaced geometry 196 (of 450) >>
	<< Calculating on displaced geometry 194 (of 450) >>
	<< Calculating on displaced geometry 197 (of 450) >>
	<< Calculating on displaced geometry 198 (of 450) >>
	<< Calculating on displaced geometry 199 (of 450) >>
	<< Calculating on displaced geometry 200 (of 450) >>
	<< Calculating on displaced geometry 201 (of 450) >>
	<< Calculating on displaced geometry 202 (of 450) >>
	<< Calculating on displaced geometry 204 (of 450) >>
	<< Calculating on displaced geometry 203 (of 450) >>
	<< Calculating on displaced geometry 205 (of 450) >>
	<< Calculating on displaced geometry 206 (of 450) >>
	<< Calculating on displaced geometry 207 (of 450) >>
	<< Calculating on displaced geometry 208 (of 450) >>
	<< Calculating on displaced geometry 209 (of 450) >>
	<< Calculating on displaced geometry 210 (of 450) >>
	<< Calculating on displaced geometry 211 (of 450) >>
	<< Calculating on displaced geometry 212 (of 450) >>
	<< Calculating on displaced geometry 213 (of 450) >>
	<< Calculating on displaced geometry 214 (of 450) >>
	<< Calculating on displaced geometry 216 (of 450) >>
	<< Calculating on displaced geometry 215 (of 450) >>
	<< Calculating on displaced geometry 217 (of 450) >>
	<< Calculating on displaced geometry 219 (of 450) >>
	<< Calculating on displaced geometry 220 (of 450) >>
	<< Calculating on displaced geometry 221 (of 450) >>
	<< Calculating on displaced geometry 218 (of 450) >>
	<< Calculating on displaced geometry 223 (of 450) >>
	<< Calculating on displaced geometry 224 (of 450) >>
	<< Calculating on displaced geometry 222 (of 450) >>
	<< Calculating on displaced geometry 225 (of 450) >>
	<< Calculating on displaced geometry 226 (of 450) >>
	<< Calculating on displaced geometry 227 (of 450) >>
	<< Calculating on displaced geometry 228 (of 450) >>
	<< Calculating on displaced geometry 229 (of 450) >>
	<< Calculating on displaced geometry 231 (of 450) >>
	<< Calculating on displaced geometry 230 (of 450) >>
	<< Calculating on displaced geometry 233 (of 450) >>
	<< Calculating on displaced geometry 232 (of 450) >>
	<< Calculating on displaced geometry 235 (of 450) >>
	<< Calculating on displaced geometry 236 (of 450) >>
	<< Calculating on displaced geometry 234 (of 450) >>
	<< Calculating on displaced geometry 238 (of 450) >>
	<< Calculating on displaced geometry 239 (of 450) >>
	<< Calculating on displaced geometry 237 (of 450) >>
	<< Calculating on displaced geometry 240 (of 450) >>
	<< Calculating on displaced geometry 241 (of 450) >>
	<< Calculating on displaced geometry 243 (of 450) >>
	<< Calculating on displaced geometry 242 (of 450) >>
	<< Calculating on displaced geometry 244 (of 450) >>
	<< Calculating on displaced geometry 245 (of 450) >>
	<< Calculating on displaced geometry 246 (of 450) >>
	<< Calculating on displaced geometry 247 (of 450) >>
	<< Calculating on displaced geometry 248 (of 450) >>
	<< Calculating on displaced geometry 250 (of 450) >>
	<< Calculating on displaced geometry 251 (of 450) >>
	<< Calculating on displaced geometry 249 (of 450) >>
	<< Calculating on displaced geometry 252 (of 450) >>
	<< Calculating on displaced geometry 253 (of 450) >>
	<< Calculating on displaced geometry 254 (of 450) >>
	<< Calculating on displaced geometry 255 (of 450) >>
	<< Calculating on displaced geometry 256 (of 450) >>
	<< Calculating on displaced geometry 257 (of 450) >>
	<< Calculating on displaced geometry 258 (of 450) >>
	<< Calculating on displaced geometry 259 (of 450) >>
	<< Calculating on displaced geometry 260 (of 450) >>
	<< Calculating on displaced geometry 261 (of 450) >>
	<< Calculating on displaced geometry 262 (of 450) >>
	<< Calculating on displaced geometry 263 (of 450) >>
	<< Calculating on displaced geometry 264 (of 450) >>
	<< Calculating on displaced geometry 265 (of 450) >>
	<< Calculating on displaced geometry 266 (of 450) >>
	<< Calculating on displaced geometry 267 (of 450) >>
	<< Calculating on displaced geometry 268 (of 450) >>
	<< Calculating on displaced geometry 270 (of 450) >>
	<< Calculating on displaced geometry 269 (of 450) >>
	<< Calculating on displaced geometry 271 (of 450) >>
	<< Calculating on displaced geometry 275 (of 450) >>
	<< Calculating on displaced geometry 272 (of 450) >>
	<< Calculating on displaced geometry 274 (of 450) >>
	<< Calculating on displaced geometry 278 (of 450) >>
	<< Calculating on displaced geometry 273 (of 450) >>
	<< Calculating on displaced geometry 276 (of 450) >>
	<< Calculating on displaced geometry 279 (of 450) >>
	<< Calculating on displaced geometry 277 (of 450) >>
	<< Calculating on displaced geometry 280 (of 450) >>
	<< Calculating on displaced geometry 281 (of 450) >>
	<< Calculating on displaced geometry 282 (of 450) >>
	<< Calculating on displaced geometry 283 (of 450) >>
	<< Calculating on displaced geometry 284 (of 450) >>
	<< Calculating on displaced geometry 286 (of 450) >>
	<< Calculating on displaced geometry 285 (of 450) >>
	<< Calculating on displaced geometry 287 (of 450) >>
	<< Calculating on displaced geometry 288 (of 450) >>
	<< Calculating on displaced geometry 289 (of 450) >>
	<< Calculating on displaced geometry 290 (of 450) >>
	<< Calculating on displaced geometry 291 (of 450) >>
	<< Calculating on displaced geometry 292 (of 450) >>
	<< Calculating on displaced geometry 294 (of 450) >>
	<< Calculating on displaced geometry 295 (of 450) >>
	<< Calculating on displaced geometry 296 (of 450) >>
	<< Calculating on displaced geometry 297 (of 450) >>
	<< Calculating on displaced geometry 300 (of 450) >>
	<< Calculating on displaced geometry 298 (of 450) >>
	<< Calculating on displaced geometry 299 (of 450) >>
	<< Calculating on displaced geometry 301 (of 450) >>
	<< Calculating on displaced geometry 302 (of 450) >>
	<< Calculating on displaced geometry 304 (of 450) >>
	<< Calculating on displaced geometry 303 (of 450) >>
	<< Calculating on displaced geometry 293 (of 450) >>
	<< Calculating on displaced geometry 305 (of 450) >>
	<< Calculating on displaced geometry 306 (of 450) >>
	<< Calculating on displaced geometry 307 (of 450) >>
	<< Calculating on displaced geometry 308 (of 450) >>
	<< Calculating on displaced geometry 309 (of 450) >>
	<< Calculating on displaced geometry 310 (of 450) >>
	<< Calculating on displaced geometry 311 (of 450) >>
	<< Calculating on displaced geometry 312 (of 450) >>
	<< Calculating on displaced geometry 313 (of 450) >>
	<< Calculating on displaced geometry 316 (of 450) >>
	<< Calculating on displaced geometry 314 (of 450) >>
	<< Calculating on displaced geometry 315 (of 450) >>
	<< Calculating on displaced geometry 317 (of 450) >>
	<< Calculating on displaced geometry 318 (of 450) >>
	<< Calculating on displaced geometry 320 (of 450) >>
	<< Calculating on displaced geometry 319 (of 450) >>
	<< Calculating on displaced geometry 321 (of 450) >>
	<< Calculating on displaced geometry 323 (of 450) >>
	<< Calculating on displaced geometry 322 (of 450) >>
	<< Calculating on displaced geometry 324 (of 450) >>
	<< Calculating on displaced geometry 325 (of 450) >>
	<< Calculating on displaced geometry 326 (of 450) >>
	<< Calculating on displaced geometry 327 (of 450) >>
	<< Calculating on displaced geometry 328 (of 450) >>
	<< Calculating on displaced geometry 329 (of 450) >>
	<< Calculating on displaced geometry 330 (of 450) >>
	<< Calculating on displaced geometry 331 (of 450) >>
	<< Calculating on displaced geometry 332 (of 450) >>
	<< Calculating on displaced geometry 333 (of 450) >>
	<< Calculating on displaced geometry 334 (of 450) >>
	<< Calculating on displaced geometry 335 (of 450) >>
	<< Calculating on displaced geometry 336 (of 450) >>
	<< Calculating on displaced geometry 337 (of 450) >>
	<< Calculating on displaced geometry 338 (of 450) >>
	<< Calculating on displaced geometry 339 (of 450) >>
	<< Calculating on displaced geometry 340 (of 450) >>
	<< Calculating on displaced geometry 341 (of 450) >>
	<< Calculating on displaced geometry 342 (of 450) >>
	<< Calculating on displaced geometry 343 (of 450) >>
	<< Calculating on displaced geometry 344 (of 450) >>
	<< Calculating on displaced geometry 346 (of 450) >>
	<< Calculating on displaced geometry 345 (of 450) >>
	<< Calculating on displaced geometry 347 (of 450) >>
	<< Calculating on displaced geometry 348 (of 450) >>
	<< Calculating on displaced geometry 350 (of 450) >>
	<< Calculating on displaced geometry 351 (of 450) >>
	<< Calculating on displaced geometry 349 (of 450) >>
	<< Calculating on displaced geometry 352 (of 450) >>
	<< Calculating on displaced geometry 353 (of 450) >>
	<< Calculating on displaced geometry 354 (of 450) >>
	<< Calculating on displaced geometry 355 (of 450) >>
	<< Calculating on displaced geometry 356 (of 450) >>
	<< Calculating on displaced geometry 357 (of 450) >>
	<< Calculating on displaced geometry 358 (of 450) >>
	<< Calculating on displaced geometry 359 (of 450) >>
	<< Calculating on displaced geometry 360 (of 450) >>
	<< Calculating on displaced geometry 361 (of 450) >>
	<< Calculating on displaced geometry 362 (of 450) >>
	<< Calculating on displaced geometry 363 (of 450) >>
	<< Calculating on displaced geometry 364 (of 450) >>
	<< Calculating on displaced geometry 365 (of 450) >>
	<< Calculating on displaced geometry 366 (of 450) >>
	<< Calculating on displaced geometry 367 (of 450) >>
	<< Calculating on displaced geometry 368 (of 450) >>
	<< Calculating on displaced geometry 369 (of 450) >>
	<< Calculating on displaced geometry 370 (of 450) >>
	<< Calculating on displaced geometry 371 (of 450) >>
	<< Calculating on displaced geometry 372 (of 450) >>
	<< Calculating on displaced geometry 373 (of 450) >>
	<< Calculating on displaced geometry 375 (of 450) >>
	<< Calculating on displaced geometry 374 (of 450) >>
	<< Calculating on displaced geometry 376 (of 450) >>
	<< Calculating on displaced geometry 377 (of 450) >>
	<< Calculating on displaced geometry 378 (of 450) >>
	<< Calculating on displaced geometry 379 (of 450) >>
	<< Calculating on displaced geometry 380 (of 450) >>
	<< Calculating on displaced geometry 381 (of 450) >>
	<< Calculating on displaced geometry 382 (of 450) >>
	<< Calculating on displaced geometry 384 (of 450) >>
	<< Calculating on displaced geometry 383 (of 450) >>
	<< Calculating on displaced geometry 385 (of 450) >>
	<< Calculating on displaced geometry 387 (of 450) >>
	<< Calculating on displaced geometry 388 (of 450) >>
	<< Calculating on displaced geometry 386 (of 450) >>
	<< Calculating on displaced geometry 389 (of 450) >>
	<< Calculating on displaced geometry 390 (of 450) >>
	<< Calculating on displaced geometry 391 (of 450) >>
	<< Calculating on displaced geometry 392 (of 450) >>
	<< Calculating on displaced geometry 393 (of 450) >>
	<< Calculating on displaced geometry 394 (of 450) >>
	<< Calculating on displaced geometry 395 (of 450) >>
	<< Calculating on displaced geometry 396 (of 450) >>
	<< Calculating on displaced geometry 397 (of 450) >>
	<< Calculating on displaced geometry 398 (of 450) >>
	<< Calculating on displaced geometry 400 (of 450) >>
	<< Calculating on displaced geometry 399 (of 450) >>
	<< Calculating on displaced geometry 403 (of 450) >>
	<< Calculating on displaced geometry 401 (of 450) >>
	<< Calculating on displaced geometry 402 (of 450) >>
	<< Calculating on displaced geometry 404 (of 450) >>
	<< Calculating on displaced geometry 405 (of 450) >>
	<< Calculating on displaced geometry 406 (of 450) >>
	<< Calculating on displaced geometry 407 (of 450) >>
	<< Calculating on displaced geometry 408 (of 450) >>
	<< Calculating on displaced geometry 409 (of 450) >>
	<< Calculating on displaced geometry 411 (of 450) >>
	<< Calculating on displaced geometry 410 (of 450) >>
	<< Calculating on displaced geometry 412 (of 450) >>
	<< Calculating on displaced geometry 413 (of 450) >>
	<< Calculating on displaced geometry 414 (of 450) >>
	<< Calculating on displaced geometry 416 (of 450) >>
	<< Calculating on displaced geometry 418 (of 450) >>
	<< Calculating on displaced geometry 417 (of 450) >>
	<< Calculating on displaced geometry 415 (of 450) >>
	<< Calculating on displaced geometry 419 (of 450) >>
	<< Calculating on displaced geometry 420 (of 450) >>
	<< Calculating on displaced geometry 421 (of 450) >>
	<< Calculating on displaced geometry 422 (of 450) >>
	<< Calculating on displaced geometry 423 (of 450) >>
	<< Calculating on displaced geometry 424 (of 450) >>
	<< Calculating on displaced geometry 425 (of 450) >>
	<< Calculating on displaced geometry 427 (of 450) >>
	<< Calculating on displaced geometry 426 (of 450) >>
	<< Calculating on displaced geometry 429 (of 450) >>
	<< Calculating on displaced geometry 428 (of 450) >>
	<< Calculating on displaced geometry 430 (of 450) >>
	<< Calculating on displaced geometry 431 (of 450) >>
	<< Calculating on displaced geometry 432 (of 450) >>
	<< Calculating on displaced geometry 433 (of 450) >>
	<< Calculating on displaced geometry 435 (of 450) >>
	<< Calculating on displaced geometry 434 (of 450) >>
	<< Calculating on displaced geometry 436 (of 450) >>
	<< Calculating on displaced geometry 437 (of 450) >>
	<< Calculating on displaced geometry 438 (of 450) >>
	<< Calculating on displaced geometry 440 (of 450) >>
	<< Calculating on displaced geometry 441 (of 450) >>
	<< Calculating on displaced geometry 439 (of 450) >>
	<< Calculating on displaced geometry 442 (of 450) >>
	<< Calculating on displaced geometry 443 (of 450) >>
	<< Calculating on displaced geometry 444 (of 450) >>
	<< Calculating on displaced geometry 445 (of 450) >>
	<< Calculating on displaced geometry 447 (of 450) >>
	<< Calculating on displaced geometry 446 (of 450) >>
	<< Calculating on displaced geometry 448 (of 450) >>
	<< Calculating on displaced geometry 449 (of 450) >>
	<< Calculating on displaced geometry 450 (of 450) >>

-----------------------
VIBRATIONAL FREQUENCIES
-----------------------

Scaling factor for frequencies =  1.000000000 (already applied!)

   0:         0.00 cm**-1
   1:         0.00 cm**-1
   2:         0.00 cm**-1
   3:         0.00 cm**-1
   4:         0.00 cm**-1
   5:         0.00 cm**-1
   6:        41.17 cm**-1
   7:        53.97 cm**-1
   8:        58.41 cm**-1
   9:        60.11 cm**-1
  10:        63.14 cm**-1
  11:        67.82 cm**-1
  12:        70.57 cm**-1
  13:        82.45 cm**-1
  14:        85.87 cm**-1
  15:        87.94 cm**-1
  16:        88.81 cm**-1
  17:        93.43 cm**-1
  18:        97.56 cm**-1
  19:        99.93 cm**-1
  20:       102.17 cm**-1
  21:       105.67 cm**-1
  22:       110.21 cm**-1
  23:       112.07 cm**-1
  24:       120.08 cm**-1
  25:       133.08 cm**-1
  26:       140.09 cm**-1
  27:       144.49 cm**-1
  28:       148.05 cm**-1
  29:       154.98 cm**-1
  30:       155.65 cm**-1
  31:       161.86 cm**-1
  32:       168.19 cm**-1
  33:       174.17 cm**-1
  34:       175.39 cm**-1
  35:       178.77 cm**-1
  36:       180.99 cm**-1
  37:       183.96 cm**-1
  38:       189.31 cm**-1
  39:       191.59 cm**-1
  40:       196.33 cm**-1
  41:       196.75 cm**-1
  42:       203.01 cm**-1
  43:       208.96 cm**-1
  44:       210.38 cm**-1
  45:       214.79 cm**-1
  46:       216.39 cm**-1
  47:       227.05 cm**-1
  48:       234.84 cm**-1
  49:       235.70 cm**-1
  50:       239.25 cm**-1
  51:       247.64 cm**-1
  52:       249.87 cm**-1
  53:       256.30 cm**-1
  54:       260.26 cm**-1
  55:       262.96 cm**-1
  56:       269.36 cm**-1
  57:       274.82 cm**-1
  58:       276.52 cm**-1
  59:       278.44 cm**-1
  60:       288.52 cm**-1
  61:       292.62 cm**-1
  62:       299.07 cm**-1
  63:       302.57 cm**-1
  64:       304.86 cm**-1
  65:       316.85 cm**-1
  66:       323.76 cm**-1
  67:       327.02 cm**-1
  68:       333.02 cm**-1
  69:       338.93 cm**-1
  70:       340.46 cm**-1
  71:       346.58 cm**-1
  72:       355.24 cm**-1
  73:       362.01 cm**-1
  74:       366.17 cm**-1
  75:       368.86 cm**-1
  76:       373.51 cm**-1
  77:       383.19 cm**-1
  78:       393.19 cm**-1
  79:       399.46 cm**-1
  80:       411.42 cm**-1
  81:       416.56 cm**-1
  82:       426.50 cm**-1
  83:       430.30 cm**-1
  84:       437.67 cm**-1
  85:       455.02 cm**-1
  86:       465.99 cm**-1
  87:       477.16 cm**-1
  88:       485.38 cm**-1
  89:       497.22 cm**-1
  90:       502.47 cm**-1
  91:       506.57 cm**-1
  92:       517.76 cm**-1
  93:       529.89 cm**-1
  94:       545.87 cm**-1
  95:       549.60 cm**-1
  96:       558.24 cm**-1
  97:       561.44 cm**-1
  98:       566.69 cm**-1
  99:       574.38 cm**-1
 100:       583.09 cm**-1
 101:       587.28 cm**-1
 102:       592.67 cm**-1
 103:       596.23 cm**-1
 104:       597.45 cm**-1
 105:       601.18 cm**-1
 106:       604.50 cm**-1
 107:       608.58 cm**-1
 108:       615.32 cm**-1
 109:       625.39 cm**-1
 110:       626.58 cm**-1
 111:       628.55 cm**-1
 112:       638.31 cm**-1
 113:       641.75 cm**-1
 114:       651.50 cm**-1
 115:       652.77 cm**-1
 116:       659.47 cm**-1
 117:       667.43 cm**-1
 118:       677.19 cm**-1
 119:       680.82 cm**-1
 120:       688.41 cm**-1
 121:       706.54 cm**-1
 122:       714.19 cm**-1
 123:       714.82 cm**-1
 124:       722.25 cm**-1
 125:       732.09 cm**-1
 126:       734.73 cm**-1
 127:       742.88 cm**-1
 128:       744.70 cm**-1
 129:       748.62 cm**-1
 130:       762.18 cm**-1
 131:       765.20 cm**-1
 132:       767.13 cm**-1
 133:       779.11 cm**-1
 134:       784.23 cm**-1
 135:       792.20 cm**-1
 136:       798.63 cm**-1
 137:       816.40 cm**-1
 138:       835.52 cm**-1
 139:       864.78 cm**-1
 140:       874.36 cm**-1
 141:       886.23 cm**-1
 142:       892.51 cm**-1
 143:       896.06 cm**-1
 144:       910.38 cm**-1
 145:       915.82 cm**-1
 146:       921.87 cm**-1
 147:       967.44 cm**-1
 148:       983.21 cm**-1
 149:      1005.57 cm**-1
 150:      1462.49 cm**-1
 151:      1479.62 cm**-1
 152:      1481.62 cm**-1
 153:      1494.77 cm**-1
 154:      1496.63 cm**-1
 155:      1503.76 cm**-1
 156:      1505.16 cm**-1
 157:      1507.25 cm**-1
 158:      1511.76 cm**-1
 159:      1513.67 cm**-1
 160:      1513.91 cm**-1
 161:      1520.13 cm**-1
 162:      1525.50 cm**-1
 163:      1526.22 cm**-1
 164:      1529.91 cm**-1
 165:      1536.69 cm**-1
 166:      1538.98 cm**-1
 167:      1540.40 cm**-1
 168:      1544.66 cm**-1
 169:      1547.74 cm**-1
 170:      1549.24 cm**-1
 171:      1553.17 cm**-1
 172:      1557.80 cm**-1
 173:      1569.05 cm**-1
 174:      1576.58 cm**-1
 175:      2913.64 cm**-1
 176:      2984.37 cm**-1
 177:      2999.65 cm**-1
 178:      3008.51 cm**-1
 179:      3023.38 cm**-1
 180:      3052.82 cm**-1
 181:      3069.67 cm**-1
 182:      3098.14 cm**-1
 183:      3128.01 cm**-1
 184:      3139.01 cm**-1
 185:      3147.61 cm**-1
 186:      3167.61 cm**-1
 187:      3172.49 cm**-1
 188:      3193.47 cm**-1
 189:      3212.27 cm**-1
 190:      3218.96 cm**-1
 191:      3226.77 cm**-1
 192:      3231.20 cm**-1
 193:      3247.84 cm**-1
 194:      3260.30 cm**-1
 195:      3264.77 cm**-1
 196:      3277.09 cm**-1
 197:      3289.51 cm**-1
 198:      3310.11 cm**-1
 199:      3319.25 cm**-1
 200:      3331.83 cm**-1
 201:      3350.86 cm**-1
 202:      3355.64 cm**-1
 203:      3361.50 cm**-1
 204:      3365.17 cm**-1
 205:      3375.90 cm**-1
 206:      3383.17 cm**-1
 207:      3406.78 cm**-1
 208:      3409.76 cm**-1
 209:      3412.67 cm**-1
 210:      3416.49 cm**-1
 211:      3425.94 cm**-1
 212:      3427.39 cm**-1
 213:      3435.58 cm**-1
 214:      3463.43 cm**-1
 215:      3488.52 cm**-1
 216:      3491.99 cm**-1
 217:      3498.21 cm**-1
 218:      3524.02 cm**-1
 219:      3567.95 cm**-1
 220:      3585.23 cm**-1
 221:      3649.74 cm**-1
 222:      3659.91 cm**-1
 223:      3675.50 cm**-1
 224:      3684.74 cm**-1


------------
NORMAL MODES
------------

These modes are the cartesian displacements weighted by the diagonal matrix
M(i,i)=1/sqrt(m[i]) where m[i] is the mass of the displaced atom
Thus, these vectors are normalized but *not* orthogonal

                  0          1          2          3          4          5    
      0       0.000000   0.000000   0.000000   0.000000   0.000000   0.000000
      1       0.000000   0.000000   0.000000   0.000000   0.000000   0.000000
      2       0.000000   0.000000   0.000000   0.000000   0.000000   0.000000
      3       0.000000   0.000000   0.000000   0.000000   0.000000   0.000000
      4       0.000000   0.000000   0.000000   0.000000   0.000000   0.000000
      5       0.000000   0.000000   0.000000   0.000000   0.000000   0.000000
      6       0.000000   0.000000   0.000000   0.000000   0.000000   0.000000
      7       0.000000   0.000000   0.000000   0.000000   0.000000   0.000000
      8       0.000000   0.000000   0.000000   0.000000   0.000000   0.000000
      9       0.000000   0.000000   0.000000   0.000000   0.000000   0.000000
     10       0.000000   0.000000   0.000000   0.000000   0.000000   0.000000
     11       0.000000   0.000000   0.000000   0.000000   0.000000   0.000000
     12       0.000000   0.000000   0.000000   0.000000   0.000000   0.000000
     13       0.000000   0.000000   0.000000   0.000000   0.000000   0.000000
     14       0.000000   0.000000   0.000000   0.000000   0.000000   0.000000
     15       0.000000   0.000000   0.000000   0.000000   0.000000   0.000000
     16       0.000000   0.000000   0.000000   0.000000   0.000000   0.000000
     17       0.000000   0.000000   0.000000   0.000000   0.000000   0.000000
     18       0.000000   0.000000   0.000000   0.000000   0.000000   0.000000
     19       0.000000   0.000000   0.000000   0.000000   0.000000   0.000000
     20       0.000000   0.000000   0.000000   0.000000   0.000000   0.000000
     21       0.000000   0.000000   0.000000   0.000000   0.000000   0.000000
     22       0.000000   0.000000   0.000000   0.000000   0.000000   0.000000
     23       0.000000   0.000000   0.000000   0.000000   0.000000   0.000000
     24       0.000000   0.000000   0.000000   0.000000   0.000000   0.000000
     25       0.000000   0.000000   0.000000   0.000000   0.000000   0.000000
     26       0.000000   0.000000   0.000000   0.000000   0.000000   0.000000
     27       0.000000   0.000000   0.000000   0.000000   0.000000   0.000000
     28       0.000000   0.000000   0.000000   0.000000   0.000000   0.000000
     29       0.000000   0.000000   0.000000   0.000000   0.000000   0.000000
     30       0.000000   0.000000   0.000000   0.000000   0.000000   0.000000
     31       0.000000   0.000000   0.000000   0.000000   0.000000   0.000000
     32       0.000000   0.000000   0.000000   0.000000   0.000000   0.000000
     33       0.000000   0.000000   0.000000   0.000000   0.000000   0.000000
     34       0.000000   0.000000   0.000000   0.000000   0.000000   0.000000
     35       0.000000   0.000000   0.000000   0.000000   0.000000   0.000000
     36       0.000000   0.000000   0.000000   0.000000   0.000000   0.000000
     37       0.000000   0.000000   0.000000   0.000000   0.000000   0.000000
     38       0.000000   0.000000   0.000000   0.000000   0.000000   0.000000
     39       0.000000   0.000000   0.000000   0.000000   0.000000   0.000000
     40       0.000000   0.000000   0.000000   0.000000   0.000000   0.000000
     41       0.000000   0.000000   0.000000   0.000000   0.000000   0.000000
     42       0.000000   0.000000   0.000000   0.000000   0.000000   0.000000
     43       0.000000   0.000000   0.000000   0.000000   0.000000   0.000000
     44       0.000000   0.000000   0.000000   0.000000   0.000000   0.000000
     45       0.000000   0.000000   0.000000   0.000000   0.000000   0.000000
     46       0.000000   0.000000   0.000000   0.000000   0.000000   0.000000
     47       0.000000   0.000000   0.000000   0.000000   0.000000   0.000000
     48       0.000000   0.000000   0.000000   0.000000   0.000000   0.000000
     49       0.000000   0.000000   0.000000   0.000000   0.000000   0.000000
     50       0.000000   0.000000   0.000000   0.000000   0.000000   0.000000
     51       0.000000   0.000000   0.000000   0.000000   0.000000   0.000000
     52       0.000000   0.000000   0.000000   0.000000   0.000000   0.000000
     53       0.000000   0.000000   0.000000   0.000000   0.000000   0.000000
     54       0.000000   0.000000   0.000000   0.000000   0.000000   0.000000
     55       0.000000   0.000000   0.000000   0.000000   0.000000   0.000000
     56       0.000000   0.000000   0.000000   0.000000   0.000000   0.000000
     57       0.000000   0.000000   0.000000   0.000000   0.000000   0.000000
     58       0.000000   0.000000   0.000000   0.000000   0.000000   0.000000
     59       0.000000   0.000000   0.000000   0.000000   0.000000   0.000000
     60       0.000000   0.000000   0.000000   0.000000   0.000000   0.000000
     61       0.000000   0.000000   0.000000   0.000000   0.000000   0.000000
     62       0.000000   0.000000   0.000000   0.000000   0.000000   0.000000
     63       0.000000   0.000000   0.000000   0.000000   0.000000   0.000000
     64       0.000000   0.000000   0.000000   0.000000   0.000000   0.000000
     65       0.000000   0.000000   0.000000   0.000000   0.000000   0.000000
     66       0.000000   0.000000   0.000000   0.000000   0.000000   0.000000
     67       0.000000   0.000000   0.000000   0.000000   0.000000   0.000000
     68       0.000000   0.000000   0.000000   0.000000   0.000000   0.000000
     69       0.000000   0.000000   0.000000   0.000000   0.000000   0.000000
     70       0.000000   0.000000   0.000000   0.000000   0.000000   0.000000
     71       0.000000   0.000000   0.000000   0.000000   0.000000   0.000000
     72       0.000000   0.000000   0.000000   0.000000   0.000000   0.000000
     73       0.000000   0.000000   0.000000   0.000000   0.000000   0.000000
     74       0.000000   0.000000   0.000000   0.000000   0.000000   0.000000
     75       0.000000   0.000000   0.000000   0.000000   0.000000   0.000000
     76       0.000000   0.000000   0.000000   0.000000   0.000000   0.000000
     77       0.000000   0.000000   0.000000   0.000000   0.000000   0.000000
     78       0.000000   0.000000   0.000000   0.000000   0.000000   0.000000
     79       0.000000   0.000000   0.000000   0.000000   0.000000   0.000000
     80       0.000000   0.000000   0.000000   0.000000   0.000000   0.000000
     81       0.000000   0.000000   0.000000   0.000000   0.000000   0.000000
     82       0.000000   0.000000   0.000000   0.000000   0.000000   0.000000
     83       0.000000   0.000000   0.000000   0.000000   0.000000   0.000000
     84       0.000000   0.000000   0.000000   0.000000   0.000000   0.000000
     85       0.000000   0.000000   0.000000   0.000000   0.000000   0.000000
     86       0.000000   0.000000   0.000000   0.000000   0.000000   0.000000
     87       0.000000   0.000000   0.000000   0.000000   0.000000   0.000000
     88       0.000000   0.000000   0.000000   0.000000   0.000000   0.000000
     89       0.000000   0.000000   0.000000   0.000000   0.000000   0.000000
     90       0.000000   0.000000   0.000000   0.000000   0.000000   0.000000
     91       0.000000   0.000000   0.000000   0.000000   0.000000   0.000000
     92       0.000000   0.000000   0.000000   0.000000   0.000000   0.000000
     93       0.000000   0.000000   0.000000   0.000000   0.000000   0.000000
     94       0.000000   0.000000   0.000000   0.000000   0.000000   0.000000
     95       0.000000   0.000000   0.000000   0.000000   0.000000   0.000000
     96       0.000000   0.000000   0.000000   0.000000   0.000000   0.000000
     97       0.000000   0.000000   0.000000   0.000000   0.000000   0.000000
     98       0.000000   0.000000   0.000000   0.000000   0.000000   0.000000
     99       0.000000   0.000000   0.000000   0.000000   0.000000   0.000000
    100       0.000000   0.000000   0.000000   0.000000   0.000000   0.000000
    101       0.000000   0.000000   0.000000   0.000000   0.000000   0.000000
    102       0.000000   0.000000   0.000000   0.000000   0.000000   0.000000
    103       0.000000   0.000000   0.000000   0.000000   0.000000   0.000000
    104       0.000000   0.000000   0.000000   0.000000   0.000000   0.000000
    105       0.000000   0.000000   0.000000   0.000000   0.000000   0.000000
    106       0.000000   0.000000   0.000000   0.000000   0.000000   0.000000
    107       0.000000   0.000000   0.000000   0.000000   0.000000   0.000000
    108       0.000000   0.000000   0.000000   0.000000   0.000000   0.000000
    109       0.000000   0.000000   0.000000   0.000000   0.000000   0.000000
    110       0.000000   0.000000   0.000000   0.000000   0.000000   0.000000
    111       0.000000   0.000000   0.000000   0.000000   0.000000   0.000000
    112       0.000000   0.000000   0.000000   0.000000   0.000000   0.000000
    113       0.000000   0.000000   0.000000   0.000000   0.000000   0.000000
    114       0.000000   0.000000   0.000000   0.000000   0.000000   0.000000
    115       0.000000   0.000000   0.000000   0.000000   0.000000   0.000000
    116       0.000000   0.000000   0.000000   0.000000   0.000000   0.000000
    117       0.000000   0.000000   0.000000   0.000000   0.000000   0.000000
    118       0.000000   0.000000   0.000000   0.000000   0.000000   0.000000
    119       0.000000   0.000000   0.000000   0.000000   0.000000   0.000000
    120       0.000000   0.000000   0.000000   0.000000   0.000000   0.000000
    121       0.000000   0.000000   0.000000   0.000000   0.000000   0.000000
    122       0.000000   0.000000   0.000000   0.000000   0.000000   0.000000
    123       0.000000   0.000000   0.000000   0.000000   0.000000   0.000000
    124       0.000000   0.000000   0.000000   0.000000   0.000000   0.000000
    125       0.000000   0.000000   0.000000   0.000000   0.000000   0.000000
    126       0.000000   0.000000   0.000000   0.000000   0.000000   0.000000
    127       0.000000   0.000000   0.000000   0.000000   0.000000   0.000000
    128       0.000000   0.000000   0.000000   0.000000   0.000000   0.000000
    129       0.000000   0.000000   0.000000   0.000000   0.000000   0.000000
    130       0.000000   0.000000   0.000000   0.000000   0.000000   0.000000
    131       0.000000   0.000000   0.000000   0.000000   0.000000   0.000000
    132       0.000000   0.000000   0.000000   0.000000   0.000000   0.000000
    133       0.000000   0.000000   0.000000   0.000000   0.000000   0.000000
    134       0.000000   0.000000   0.000000   0.000000   0.000000   0.000000
    135       0.000000   0.000000   0.000000   0.000000   0.000000   0.000000
    136       0.000000   0.000000   0.000000   0.000000   0.000000   0.000000
    137       0.000000   0.000000   0.000000   0.000000   0.000000   0.000000
    138       0.000000   0.000000   0.000000   0.000000   0.000000   0.000000
    139       0.000000   0.000000   0.000000   0.000000   0.000000   0.000000
    140       0.000000   0.000000   0.000000   0.000000   0.000000   0.000000
    141       0.000000   0.000000   0.000000   0.000000   0.000000   0.000000
    142       0.000000   0.000000   0.000000   0.000000   0.000000   0.000000
    143       0.000000   0.000000   0.000000   0.000000   0.000000   0.000000
    144       0.000000   0.000000   0.000000   0.000000   0.000000   0.000000
    145       0.000000   0.000000   0.000000   0.000000   0.000000   0.000000
    146       0.000000   0.000000   0.000000   0.000000   0.000000   0.000000
    147       0.000000   0.000000   0.000000   0.000000   0.000000   0.000000
    148       0.000000   0.000000   0.000000   0.000000   0.000000   0.000000
    149       0.000000   0.000000   0.000000   0.000000   0.000000   0.000000
    150       0.000000   0.000000   0.000000   0.000000   0.000000   0.000000
    151       0.000000   0.000000   0.000000   0.000000   0.000000   0.000000
    152       0.000000   0.000000   0.000000   0.000000   0.000000   0.000000
    153       0.000000   0.000000   0.000000   0.000000   0.000000   0.000000
    154       0.000000   0.000000   0.000000   0.000000   0.000000   0.000000
    155       0.000000   0.000000   0.000000   0.000000   0.000000   0.000000
    156       0.000000   0.000000   0.000000   0.000000   0.000000   0.000000
    157       0.000000   0.000000   0.000000   0.000000   0.000000   0.000000
    158       0.000000   0.000000   0.000000   0.000000   0.000000   0.000000
    159       0.000000   0.000000   0.000000   0.000000   0.000000   0.000000
    160       0.000000   0.000000   0.000000   0.000000   0.000000   0.000000
    161       0.000000   0.000000   0.000000   0.000000   0.000000   0.000000
    162       0.000000   0.000000   0.000000   0.000000   0.000000   0.000000
    163       0.000000   0.000000   0.000000   0.000000   0.000000   0.000000
    164       0.000000   0.000000   0.000000   0.000000   0.000000   0.000000
    165       0.000000   0.000000   0.000000   0.000000   0.000000   0.000000
    166       0.000000   0.000000   0.000000   0.000000   0.000000   0.000000
    167       0.000000   0.000000   0.000000   0.000000   0.000000   0.000000
    168       0.000000   0.000000   0.000000   0.000000   0.000000   0.000000
    169       0.000000   0.000000   0.000000   0.000000   0.000000   0.000000
    170       0.000000   0.000000   0.000000   0.000000   0.000000   0.000000
    171       0.000000   0.000000   0.000000   0.000000   0.000000   0.000000
    172       0.000000   0.000000   0.000000   0.000000   0.000000   0.000000
    173       0.000000   0.000000   0.000000   0.000000   0.000000   0.000000
    174       0.000000   0.000000   0.000000   0.000000   0.000000   0.000000
    175       0.000000   0.000000   0.000000   0.000000   0.000000   0.000000
    176       0.000000   0.000000   0.000000   0.000000   0.000000   0.000000
    177       0.000000   0.000000   0.000000   0.000000   0.000000   0.000000
    178       0.000000   0.000000   0.000000   0.000000   0.000000   0.000000
    179       0.000000   0.000000   0.000000   0.000000   0.000000   0.000000
    180       0.000000   0.000000   0.000000   0.000000   0.000000   0.000000
    181       0.000000   0.000000   0.000000   0.000000   0.000000   0.000000
    182       0.000000   0.000000   0.000000   0.000000   0.000000   0.000000
    183       0.000000   0.000000   0.000000   0.000000   0.000000   0.000000
    184       0.000000   0.000000   0.000000   0.000000   0.000000   0.000000
    185       0.000000   0.000000   0.000000   0.000000   0.000000   0.000000
    186       0.000000   0.000000   0.000000   0.000000   0.000000   0.000000
    187       0.000000   0.000000   0.000000   0.000000   0.000000   0.000000
    188       0.000000   0.000000   0.000000   0.000000   0.000000   0.000000
    189       0.000000   0.000000   0.000000   0.000000   0.000000   0.000000
    190       0.000000   0.000000   0.000000   0.000000   0.000000   0.000000
[...]
168:   1544.66   0.062675  316.73  0.012662  ( 0.049058  0.054325  0.085464)
169:   1547.74   0.050752  256.48  0.010233  (-0.084979 -0.000879  0.054871)
170:   1549.24   0.046507  235.03  0.009368  (-0.073864  0.007622 -0.062079)
171:   1553.17   0.014180   71.66  0.002849  (-0.044927 -0.000774 -0.028809)
172:   1557.80   0.069485  351.15  0.013919  (-0.040714  0.004282 -0.110650)
173:   1569.05   0.018115   91.55  0.003603  ( 0.027123  0.053540  0.000786)
174:   1576.58   0.028699  145.03  0.005681  (-0.019997  0.060995 -0.039501)
175:   2913.64   0.347888  1758.08  0.037260  (-0.069047 -0.067975  0.166950)
176:   2984.37   0.036382  183.86  0.003804  ( 0.059720 -0.011985 -0.009708)
177:   2999.65   0.074633  377.16  0.007764  (-0.020489  0.044114  0.073475)
178:   3008.51   0.100044  505.58  0.010377  ( 0.064663  0.011169 -0.077918)
179:   3023.38   0.344314  1740.02  0.035539  (-0.016643  0.178385  0.058658)
180:   3052.82   0.306634  1549.60  0.031345  (-0.118304  0.079731 -0.104841)
181:   3069.67   0.028798  145.53  0.002928  ( 0.033741 -0.039854 -0.014169)
182:   3098.14   0.137787  696.32  0.013879  (-0.080729 -0.060765  0.060574)
183:   3128.01   0.024001  121.29  0.002394  (-0.025558 -0.035611 -0.021750)
184:   3139.01   0.184526  932.52  0.018345  (-0.117355  0.016059 -0.065686)
185:   3147.61   0.136934  692.01  0.013576  ( 0.104787  0.050714 -0.004893)
186:   3167.61   0.273316  1381.23  0.026926  (-0.133719 -0.091951 -0.024302)
187:   3172.49   0.139190  703.41  0.013691  (-0.034200 -0.003177  0.111856)
188:   3193.47   0.072733  367.56  0.007107  ( 0.066516 -0.003377 -0.051688)
189:   3212.27   0.054922  277.56  0.005336  ( 0.015172  0.016002  0.069637)
190:   3218.96   0.172092  869.68  0.016684  (-0.008447 -0.065374 -0.111079)
191:   3226.77   0.008189   41.39  0.000792  ( 0.007843  0.024344  0.011742)
192:   3231.20   0.094130  475.69  0.009091  (-0.042086  0.074232  0.042535)
193:   3247.84   0.084345  426.25  0.008104  ( 0.006663 -0.089354  0.008696)
194:   3260.30   0.268071  1354.72  0.025659  (-0.020812  0.104267  0.119808)
195:   3264.77   0.067969  343.49  0.006497  (-0.053424 -0.038304 -0.046643)
196:   3277.09   0.004270   21.58  0.000407  (-0.018034 -0.004614 -0.007752)
197:   3289.51   0.021192  107.10  0.002010  (-0.044198  0.006053  0.004510)
198:   3310.11   0.078734  397.89  0.007423  ( 0.085260 -0.010382  0.006756)
199:   3319.25   0.064051  323.69  0.006022  (-0.056698  0.044390 -0.028926)
200:   3331.83   0.071099  359.31  0.006659  (-0.080258  0.012649  0.007609)
201:   3350.86   0.135997  687.27  0.012665  (-0.045397 -0.069051 -0.076396)
202:   3355.64   0.032094  162.19  0.002985  ( 0.009261  0.052808 -0.010493)
203:   3361.50   0.059044  298.39  0.005481  ( 0.024756  0.028111 -0.063861)
204:   3365.17   0.218955  1106.51  0.020304  ( 0.033335 -0.104318  0.091164)
205:   3375.90   0.120568  609.30  0.011145  (-0.059414 -0.046592  0.073786)
206:   3383.17   0.078547  396.94  0.007245  ( 0.007580 -0.020144  0.082352)
207:   3406.78   0.029077  146.95  0.002664  ( 0.008326  0.018039 -0.047632)
208:   3409.76   0.096318  486.75  0.008815  ( 0.090873 -0.002994 -0.023414)
209:   3412.67   0.016076   81.24  0.001470  (-0.011898  0.016685 -0.032406)
210:   3416.49   0.041174  208.08  0.003761  (-0.008627 -0.042312  0.043545)
211:   3425.94   0.061826  312.44  0.005632  ( 0.002910 -0.068635 -0.030206)
212:   3427.39   0.021844  110.39  0.001989  (-0.008244  0.029398  0.032506)
213:   3435.58   0.020432  103.26  0.001856  ( 0.035924  0.014017  0.019207)
214:   3463.43   0.014069   71.10  0.001268  ( 0.014686  0.000663 -0.032427)
215:   3488.52   0.030469  153.98  0.002726  ( 0.024684  0.034408 -0.030535)
216:   3491.99   0.091664  463.23  0.008192  ( 0.065394 -0.030331  0.054728)
217:   3498.21   0.043961  222.16  0.003922  ( 0.044830  0.041141 -0.014809)
218:   3524.02   0.039871  201.49  0.003531  ( 0.043821  0.040124  0.000733)
219:   3567.95   0.035271  178.24  0.003085  (-0.037395  0.040907  0.003614)
220:   3585.23   0.022850  115.48  0.001989  (-0.000607  0.022409 -0.038554)
221:   3649.74   0.004181   21.13  0.000357  (-0.008556  0.009302 -0.014063)
222:   3659.91   0.008389   42.39  0.000715  (-0.004575  0.026248 -0.002310)
223:   3675.50   0.002085   10.54  0.000177  ( 0.000606 -0.001384  0.013220)
224:   3684.74   0.004787   24.19  0.000405  ( 0.006140 -0.016141  0.010354)

* The epsilon (eps) is given for a Dirac delta lineshape.
** The dipole moment derivative (T) already includes vibrational overlap.

The first frequency considered to be a vibration is 6
The total number of vibrations considered is 219


--------------------------
THERMOCHEMISTRY AT 298.15K
--------------------------

Temperature         ... 298.15 K
Pressure            ... 1.00 atm
Total Mass          ... 450.38 AMU

Throughout the following assumptions are being made:
  (1) The electronic state is orbitally nondegenerate
  (2) There are no thermally accessible electronically excited states
  (3) Hindered rotations indicated by low frequency modes are not
      treated as such but are treated as vibrations and this may
      cause some error
  (4) All equations used are the standard statistical mechanics
      equations for an ideal gas
  (5) All vibrations are strictly harmonic

freq.      41.17  E(vib)   ...       0.54 
freq.      53.97  E(vib)   ...       0.52 
freq.      58.41  E(vib)   ...       0.51 
freq.      60.11  E(vib)   ...       0.51 
freq.      63.14  E(vib)   ...       0.51 
freq.      67.82  E(vib)   ...       0.50 
freq.      70.57  E(vib)   ...       0.50 
freq.      82.45  E(vib)   ...       0.48 
freq.      85.87  E(vib)   ...       0.48 
freq.      87.94  E(vib)   ...       0.48 
freq.      88.81  E(vib)   ...       0.47 
freq.      93.43  E(vib)   ...       0.47 
freq.      97.56  E(vib)   ...       0.46 
freq.      99.93  E(vib)   ...       0.46 
freq.     102.17  E(vib)   ...       0.46 
freq.     105.67  E(vib)   ...       0.45 
freq.     110.21  E(vib)   ...       0.45 
freq.     112.07  E(vib)   ...       0.45 
freq.     120.08  E(vib)   ...       0.44 
freq.     133.08  E(vib)   ...       0.42 
freq.     140.09  E(vib)   ...       0.41 
freq.     144.49  E(vib)   ...       0.41 
freq.     148.05  E(vib)   ...       0.41 
freq.     154.98  E(vib)   ...       0.40 
freq.     155.65  E(vib)   ...       0.40 
freq.     161.86  E(vib)   ...       0.39 
freq.     168.19  E(vib)   ...       0.38 
freq.     174.17  E(vib)   ...       0.38 
freq.     175.39  E(vib)   ...       0.38 
freq.     178.77  E(vib)   ...       0.37 
freq.     180.99  E(vib)   ...       0.37 
freq.     183.96  E(vib)   ...       0.37 
freq.     189.31  E(vib)   ...       0.36 
freq.     191.59  E(vib)   ...       0.36 
freq.     196.33  E(vib)   ...       0.36 
freq.     196.75  E(vib)   ...       0.36 
freq.     203.01  E(vib)   ...       0.35 
freq.     208.96  E(vib)   ...       0.34 
freq.     210.38  E(vib)   ...       0.34 
freq.     214.79  E(vib)   ...       0.34 
freq.     216.39  E(vib)   ...       0.34 
freq.     227.05  E(vib)   ...       0.33 
freq.     234.84  E(vib)   ...       0.32 
freq.     235.70  E(vib)   ...       0.32 
freq.     239.25  E(vib)   ...       0.31 
freq.     247.64  E(vib)   ...       0.31 
freq.     249.87  E(vib)   ...       0.31 
freq.     256.30  E(vib)   ...       0.30 
freq.     260.26  E(vib)   ...       0.30 
freq.     262.96  E(vib)   ...       0.29 
freq.     269.36  E(vib)   ...       0.29 
freq.     274.82  E(vib)   ...       0.28 
freq.     276.52  E(vib)   ...       0.28 
freq.     278.44  E(vib)   ...       0.28 
freq.     288.52  E(vib)   ...       0.27 
freq.     292.62  E(vib)   ...       0.27 
freq.     299.07  E(vib)   ...       0.26 
freq.     302.57  E(vib)   ...       0.26 
freq.     304.86  E(vib)   ...       0.26 
freq.     316.85  E(vib)   ...       0.25 
freq.     323.76  E(vib)   ...       0.25 
freq.     327.02  E(vib)   ...       0.24 
freq.     333.02  E(vib)   ...       0.24 
freq.     338.93  E(vib)   ...       0.23 
freq.     340.46  E(vib)   ...       0.23 
freq.     346.58  E(vib)   ...       0.23 
freq.     355.24  E(vib)   ...       0.22 
freq.     362.01  E(vib)   ...       0.22 
freq.     366.17  E(vib)   ...       0.22 
freq.     368.86  E(vib)   ...       0.21 
freq.     373.51  E(vib)   ...       0.21 
freq.     383.19  E(vib)   ...       0.20 
freq.     393.19  E(vib)   ...       0.20 
freq.     399.46  E(vib)   ...       0.19 
freq.     411.42  E(vib)   ...       0.19 
freq.     416.56  E(vib)   ...       0.18 
freq.     426.50  E(vib)   ...       0.18 
freq.     430.30  E(vib)   ...       0.18 
freq.     437.67  E(vib)   ...       0.17 
freq.     455.02  E(vib)   ...       0.16 
freq.     465.99  E(vib)   ...       0.16 
freq.     477.16  E(vib)   ...       0.15 
freq.     485.38  E(vib)   ...       0.15 
freq.     497.22  E(vib)   ...       0.14 
freq.     502.47  E(vib)   ...       0.14 
freq.     506.57  E(vib)   ...       0.14 
freq.     517.76  E(vib)   ...       0.13 
freq.     529.89  E(vib)   ...       0.13 
freq.     545.87  E(vib)   ...       0.12 
freq.     549.60  E(vib)   ...       0.12 
freq.     558.24  E(vib)   ...       0.12 
freq.     561.44  E(vib)   ...       0.11 
freq.     566.69  E(vib)   ...       0.11 
freq.     574.38  E(vib)   ...       0.11 
freq.     583.09  E(vib)   ...       0.11 
freq.     587.28  E(vib)   ...       0.10 
freq.     592.67  E(vib)   ...       0.10 
freq.     596.23  E(vib)   ...       0.10 
freq.     597.45  E(vib)   ...       0.10 
freq.     601.18  E(vib)   ...       0.10 
freq.     604.50  E(vib)   ...       0.10 
freq.     608.58  E(vib)   ...       0.10 
freq.     615.32  E(vib)   ...       0.10 
freq.     625.39  E(vib)   ...       0.09 
freq.     626.58  E(vib)   ...       0.09 
freq.     628.55  E(vib)   ...       0.09 
freq.     638.31  E(vib)   ...       0.09 
freq.     641.75  E(vib)   ...       0.09 
freq.     651.50  E(vib)   ...       0.08 
freq.     652.77  E(vib)   ...       0.08 
freq.     659.47  E(vib)   ...       0.08 
freq.     667.43  E(vib)   ...       0.08 
freq.     677.19  E(vib)   ...       0.08 
freq.     680.82  E(vib)   ...       0.08 
freq.     688.41  E(vib)   ...       0.07 
freq.     706.54  E(vib)   ...       0.07 
freq.     714.19  E(vib)   ...       0.07 
freq.     714.82  E(vib)   ...       0.07 
freq.     722.25  E(vib)   ...       0.07 
freq.     732.09  E(vib)   ...       0.06 
freq.     734.73  E(vib)   ...       0.06 
freq.     742.88  E(vib)   ...       0.06 
freq.     744.70  E(vib)   ...       0.06 
freq.     748.62  E(vib)   ...       0.06 
freq.     762.18  E(vib)   ...       0.06 
freq.     765.20  E(vib)   ...       0.06 
freq.     767.13  E(vib)   ...       0.06 
freq.     779.11  E(vib)   ...       0.05 
freq.     784.23  E(vib)   ...       0.05 
freq.     792.20  E(vib)   ...       0.05 
freq.     798.63  E(vib)   ...       0.05 
freq.     816.40  E(vib)   ...       0.05 
freq.     835.52  E(vib)   ...       0.04 
freq.     864.78  E(vib)   ...       0.04 
freq.     874.36  E(vib)   ...       0.04 
freq.     886.23  E(vib)   ...       0.04 
freq.     892.51  E(vib)   ...       0.03 
freq.     896.06  E(vib)   ...       0.03 
freq.     910.38  E(vib)   ...       0.03 
freq.     915.82  E(vib)   ...       0.03 
freq.     921.87  E(vib)   ...       0.03 
freq.     967.44  E(vib)   ...       0.03 
freq.     983.21  E(vib)   ...       0.02 
freq.    1005.57  E(vib)   ...       0.02 
freq.    1462.49  E(vib)   ...       0.00 
freq.    1479.62  E(vib)   ...       0.00 
freq.    1481.62  E(vib)   ...       0.00 
freq.    1494.77  E(vib)   ...       0.00 
freq.    1496.63  E(vib)   ...       0.00 
freq.    1503.76  E(vib)   ...       0.00 
freq.    1505.16  E(vib)   ...       0.00 
freq.    1507.25  E(vib)   ...       0.00 
freq.    1511.76  E(vib)   ...       0.00 
freq.    1513.67  E(vib)   ...       0.00 
freq.    1513.91  E(vib)   ...       0.00 
freq.    1520.13  E(vib)   ...       0.00 
freq.    1525.50  E(vib)   ...       0.00 
freq.    1526.22  E(vib)   ...       0.00 
freq.    1529.91  E(vib)   ...       0.00 
freq.    1536.69  E(vib)   ...       0.00 
freq.    1538.98  E(vib)   ...       0.00 
freq.    1540.40  E(vib)   ...       0.00 
freq.    1544.66  E(vib)   ...       0.00 
freq.    1547.74  E(vib)   ...       0.00 
freq.    1549.24  E(vib)   ...       0.00 
freq.    1553.17  E(vib)   ...       0.00 
freq.    1557.80  E(vib)   ...       0.00 
freq.    1569.05  E(vib)   ...       0.00 
freq.    1576.58  E(vib)   ...       0.00 
freq.    2913.64  E(vib)   ...       0.00 
freq.    2984.37  E(vib)   ...       0.00 
freq.    2999.65  E(vib)   ...       0.00 
freq.    3008.51  E(vib)   ...       0.00 
freq.    3023.38  E(vib)   ...       0.00 
freq.    3052.82  E(vib)   ...       0.00 
freq.    3069.67  E(vib)   ...       0.00 
freq.    3098.14  E(vib)   ...       0.00 
freq.    3128.01  E(vib)   ...       0.00 
freq.    3139.01  E(vib)   ...       0.00 
freq.    3147.61  E(vib)   ...       0.00 
freq.    3167.61  E(vib)   ...       0.00 
freq.    3172.49  E(vib)   ...       0.00 
freq.    3193.47  E(vib)   ...       0.00 
freq.    3212.27  E(vib)   ...       0.00 
freq.    3218.96  E(vib)   ...       0.00 
freq.    3226.77  E(vib)   ...       0.00 
freq.    3231.20  E(vib)   ...       0.00 
freq.    3247.84  E(vib)   ...       0.00 
freq.    3260.30  E(vib)   ...       0.00 
freq.    3264.77  E(vib)   ...       0.00 
freq.    3277.09  E(vib)   ...       0.00 
freq.    3289.51  E(vib)   ...       0.00 
freq.    3310.11  E(vib)   ...       0.00 
freq.    3319.25  E(vib)   ...       0.00 
freq.    3331.83  E(vib)   ...       0.00 
freq.    3350.86  E(vib)   ...       0.00 
freq.    3355.64  E(vib)   ...       0.00 
freq.    3361.50  E(vib)   ...       0.00 
freq.    3365.17  E(vib)   ...       0.00 
freq.    3375.90  E(vib)   ...       0.00 
freq.    3383.17  E(vib)   ...       0.00 
freq.    3406.78  E(vib)   ...       0.00 
freq.    3409.76  E(vib)   ...       0.00 
freq.    3412.67  E(vib)   ...       0.00 
freq.    3416.49  E(vib)   ...       0.00 
freq.    3425.94  E(vib)   ...       0.00 
freq.    3427.39  E(vib)   ...       0.00 
freq.    3435.58  E(vib)   ...       0.00 
freq.    3463.43  E(vib)   ...       0.00 
freq.    3488.52  E(vib)   ...       0.00 
freq.    3491.99  E(vib)   ...       0.00 
freq.    3498.21  E(vib)   ...       0.00 
freq.    3524.02  E(vib)   ...       0.00 
freq.    3567.95  E(vib)   ...       0.00 
freq.    3585.23  E(vib)   ...       0.00 
freq.    3649.74  E(vib)   ...       0.00 
freq.    3659.91  E(vib)   ...       0.00 
freq.    3675.50  E(vib)   ...       0.00 
freq.    3684.74  E(vib)   ...       0.00 

------------
INNER ENERGY
------------

The inner energy is: U= E(el) + E(ZPE) + E(vib) + E(rot) + E(trans)
    E(el)   - is the total energy from the electronic structure calculation
              = E(kin-el) + E(nuc-el) + E(el-el) + E(nuc-nuc)
    E(ZPE)  - the the zero temperature vibrational energy from the frequency calculation
    E(vib)  - the the finite temperature correction to E(ZPE) due to population
              of excited vibrational states
    E(rot)  - is the rotational thermal energy
    E(trans)- is the translational thermal energy

Summary of contributions to the inner energy U:
Electronic energy                ...  -1018.34668848 Eh
Zero point energy                ...      0.60683272 Eh     380.79 kcal/mol
Thermal vibrational correction   ...      0.05135129 Eh      32.22 kcal/mol
Thermal rotational correction    ...      0.00141627 Eh       0.89 kcal/mol
Thermal translational correction ...      0.00141627 Eh       0.89 kcal/mol
-----------------------------------------------------------------------
Total thermal energy                  -1017.68567194 Eh


Summary of corrections to the electronic energy:
(perhaps to be used in another calculation)
Total thermal correction                  0.05418383 Eh      34.00 kcal/mol
Non-thermal (ZPE) correction              0.60683272 Eh     380.79 kcal/mol
-----------------------------------------------------------------------
Total correction                          0.66101655 Eh     414.79 kcal/mol


--------
ENTHALPY
--------

The enthalpy is H = U + kB*T
                kB is Boltzmann's constant
Total free energy                 ...  -1017.68567194 Eh 
Thermal Enthalpy correction       ...      0.00094421 Eh       0.59 kcal/mol
-----------------------------------------------------------------------
Total Enthalpy                    ...  -1017.68472773 Eh


Note: Only C1 symmetry has been detected, increase convergence thresholds 
      if your molecule has a higher symmetry. Symmetry factor of 1.0 is   
      used for the rotational entropy correction. 
 

Note: Rotational entropy computed according to Herzberg 
Infrared and Raman Spectra, Chapter V,1, Van Nostrand Reinhold, 1945 
Point Group:  C1, Symmetry Number:   1  
Rotational constants in cm-1:     0.004705     0.002732     0.002266 

Vibrational entropy computed according to the QRRHO of S. Grimme
Chem.Eur.J. 2012 18 9955


-------
ENTROPY
-------

The entropy contributions are T*S = T*(S(el)+S(vib)+S(rot)+S(trans))
     S(el)   - electronic entropy
     S(vib)  - vibrational entropy
     S(rot)  - rotational entropy
     S(trans)- translational entropy
The entropies will be listed as multiplied by the temperature to get
units of energy

Electronic entropy                ...      0.00000000 Eh      0.00 kcal/mol
Vibrational entropy               ...      0.08986101 Eh     56.39 kcal/mol
Rotational entropy                ...      0.01770237 Eh     11.11 kcal/mol
Translational entropy             ...      0.02100260 Eh     13.18 kcal/mol
-----------------------------------------------------------------------
Final entropy term                ...      0.12856599 Eh     80.68 kcal/mol

In case the symmetry of your molecule has not been determined correctly
or in case you have a reason to use a different symmetry number we print 
out the resulting rotational entropy values for sn=1,12 :
 --------------------------------------------------------
|  sn= 1 | S(rot)=       0.01770237 Eh     11.11 kcal/mol|
|  sn= 2 | S(rot)=       0.01704792 Eh     10.70 kcal/mol|
|  sn= 3 | S(rot)=       0.01666508 Eh     10.46 kcal/mol|
|  sn= 4 | S(rot)=       0.01639346 Eh     10.29 kcal/mol|
|  sn= 5 | S(rot)=       0.01618277 Eh     10.15 kcal/mol|
|  sn= 6 | S(rot)=       0.01601063 Eh     10.05 kcal/mol|
|  sn= 7 | S(rot)=       0.01586508 Eh      9.96 kcal/mol|
|  sn= 8 | S(rot)=       0.01573900 Eh      9.88 kcal/mol|
|  sn= 9 | S(rot)=       0.01562779 Eh      9.81 kcal/mol|
|  sn=10 | S(rot)=       0.01552832 Eh      9.74 kcal/mol|
|  sn=11 | S(rot)=       0.01543833 Eh      9.69 kcal/mol|
|  sn=12 | S(rot)=       0.01535617 Eh      9.64 kcal/mol|
 --------------------------------------------------------


-------------------
GIBBS FREE ENERGY
-------------------

The Gibbs free energy is G = H - T*S

Total enthalpy                    ...  -1017.68472773 Eh 
Total entropy correction          ...     -0.12856599 Eh    -80.68 kcal/mol
-----------------------------------------------------------------------
Final Gibbs free energy         ...  -1017.81329372 Eh

For completeness - the Gibbs free energy minus the electronic energy
G-E(el)                           ...      0.53339477 Eh    334.71 kcal/mol



Timings for individual modules:

Sum of individual times         ...      496.488 sec (=   8.275 min)
Numerical frequency calculation ...      477.715 sec (=   7.962 min)  96.2 %
XTB module                      ...        9.611 sec (=   0.160 min)   1.9 %
ONIOM_Small energy and gradient ...        0.353 sec (=   0.006 min)   0.1 %
ONIOM_Large energy and gradient ...        8.809 sec (=   0.147 min)   1.8 %
                             ****ORCA TERMINATED NORMALLY****
TOTAL RUN TIME: 0 days 0 hours 8 minutes 15 seconds 131 msec
