
                                 *****************
                                 * O   R   C   A *
                                 *****************

                                            #,                                       
                                            ###                                      
                                            ####                                     
                                            #####                                    
                                            ######                                   
                                           ########,                                 
                                     ,,################,,,,,                         
                               ,,#################################,,                 
                          ,,##########################################,,             
                       ,#########################################, ''#####,          
                    ,#############################################,,   '####,        
                  ,##################################################,,,,####,       
                ,###########''''           ''''###############################       
              ,#####''   ,,,,##########,,,,          '''####'''          '####       
            ,##' ,,,,###########################,,,                        '##       
           ' ,,###''''                  '''############,,,                           
         ,,##''                                '''############,,,,        ,,,,,,###''
      ,#''                                            '''#######################'''  
     '                                                          ''''####''''         
             ,#######,   #######,   ,#######,      ##                                
            ,#'     '#,  ##    ##  ,#'     '#,    #''#        ######   ,####,        
            ##       ##  ##   ,#'  ##            #'  '#       #        #'  '#        
            ##       ##  #######   ##           ,######,      #####,   #    #        
            '#,     ,#'  ##    ##  '#,     ,#' ,#      #,         ##   #,  ,#        
             '#######'   ##     ##  '#######'  #'      '#     #####' # '####'        



                  #######################################################
                  #                        -***-                        #
                  #          Department of theory and spectroscopy      #
                  #    Directorship and core code : Frank Neese         #
                  #        Max Planck Institute fuer Kohlenforschung    #
                  #                Kaiser Wilhelm Platz 1               #
                  #                 D-45470 Muelheim/Ruhr               #
                  #                      Germany                        #
                  #                                                     #
                  #                  All rights reserved                #
                  #                        -***-                        #
                  #######################################################


                         Program Version 5.0.2 -  RELEASE  -


 With contributions from (in alphabetic order):
   Daniel Aravena         : Magnetic Suceptibility
   Michael Atanasov       : Ab Initio Ligand Field Theory (pilot matlab implementation)
   Alexander A. Auer      : GIAO ZORA, VPT2 properties, NMR spectrum
   Ute Becker             : Parallelization
   Giovanni Bistoni       : ED, misc. LED, open-shell LED, HFLD
   Martin Brehm           : Molecular dynamics
   Dmytro Bykov           : SCF Hessian
   Vijay G. Chilkuri      : MRCI spin determinant printing, contributions to CSF-ICE
   Dipayan Datta          : RHF DLPNO-CCSD density
   Achintya Kumar Dutta   : EOM-CC, STEOM-CC
   Dmitry Ganyushin       : Spin-Orbit,Spin-Spin,Magnetic field MRCI
   Miquel Garcia          : C-PCM and meta-GGA Hessian, CC/C-PCM, Gaussian charge scheme
   Yang Guo               : DLPNO-NEVPT2, F12-NEVPT2, CIM, IAO-localization
   Andreas Hansen         : Spin unrestricted coupled pair/coupled cluster methods
   Benjamin Helmich-Paris : MC-RPA, TRAH-SCF, COSX integrals
   Lee Huntington         : MR-EOM, pCC
   Robert Izsak           : Overlap fitted RIJCOSX, COSX-SCS-MP3, EOM
   Marcus Kettner         : VPT2
   Christian Kollmar      : KDIIS, OOCD, Brueckner-CCSD(T), CCSD density, CASPT2, CASPT2-K
   Simone Kossmann        : Meta GGA functionals, TD-DFT gradient, OOMP2, MP2 Hessian
   Martin Krupicka        : Initial AUTO-CI
   Lucas Lang             : DCDCAS
   Marvin Lechner         : AUTO-CI (C++ implementation), FIC-MRCC
   Dagmar Lenk            : GEPOL surface, SMD
   Dimitrios Liakos       : Extrapolation schemes; Compound Job, initial MDCI parallelization
   Dimitrios Manganas     : Further ROCIS development; embedding schemes
   Dimitrios Pantazis     : SARC Basis sets
   Anastasios Papadopoulos: AUTO-CI, single reference methods and gradients
   Taras Petrenko         : DFT Hessian,TD-DFT gradient, ASA, ECA, R-Raman, ABS, FL, XAS/XES, NRVS
   Peter Pinski           : DLPNO-MP2, DLPNO-MP2 Gradient
   Christoph Reimann      : Effective Core Potentials
   Marius Retegan         : Local ZFS, SOC
   Christoph Riplinger    : Optimizer, TS searches, QM/MM, DLPNO-CCSD(T), (RO)-DLPNO pert. Triples
   Tobias Risthaus        : Range-separated hybrids, TD-DFT gradient, RPA, STAB
   Michael Roemelt        : Original ROCIS implementation
   Masaaki Saitow         : Open-shell DLPNO-CCSD energy and density
   Barbara Sandhoefer     : DKH picture change effects
   Avijit Sen             : IP-ROCIS
   Kantharuban Sivalingam : CASSCF convergence, NEVPT2, FIC-MRCI
   Bernardo de Souza      : ESD, SOC TD-DFT
   Georgi Stoychev        : AutoAux, RI-MP2 NMR, DLPNO-MP2 response
   Willem Van den Heuvel  : Paramagnetic NMR
   Boris Wezisla          : Elementary symmetry handling
   Frank Wennmohs         : Technical directorship


 We gratefully acknowledge several colleagues who have allowed us to
 interface, adapt or use parts of their codes:
   Stefan Grimme, W. Hujo, H. Kruse, P. Pracht,  : VdW corrections, initial TS optimization,
                  C. Bannwarth, S. Ehlert          DFT functionals, gCP, sTDA/sTD-DF
   Ed Valeev, F. Pavosevic, A. Kumar             : LibInt (2-el integral package), F12 methods
   Garnet Chan, S. Sharma, J. Yang, R. Olivares  : DMRG
   Ulf Ekstrom                                   : XCFun DFT Library
   Mihaly Kallay                                 : mrcc  (arbitrary order and MRCC methods)
   Jiri Pittner, Ondrej Demel                    : Mk-CCSD
   Frank Weinhold                                : gennbo (NPA and NBO analysis)
   Christopher J. Cramer and Donald G. Truhlar   : smd solvation model
   Lars Goerigk                                  : TD-DFT with DH, B97 family of functionals
   V. Asgeirsson, H. Jonsson                     : NEB implementation
   FAccTs GmbH                                   : IRC, NEB, NEB-TS, DLPNO-Multilevel, CI-OPT
                                                   MM, QMMM, 2- and 3-layer-ONIOM, Crystal-QMMM,
                                                   LR-CPCM, SF, NACMEs, symmetry and pop. for TD-DFT,
                                                   nearIR, NL-DFT gradient (VV10), updates on ESD,
                                                   ML-optimized integration grids
   S Lehtola, MJT Oliveira, MAL Marques          : LibXC Library
   Liviu Ungur et al                             : ANISO software


 Your calculation uses the libint2 library for the computation of 2-el integrals
 For citations please refer to: http://libint.valeyev.net

 Your ORCA version has been built with support for libXC version: 5.1.0
 For citations please refer to: https://tddft.org/programs/libxc/

 This ORCA versions uses:
   CBLAS   interface :  Fast vector & matrix operations
   LAPACKE interface :  Fast linear algebra routines
   SCALAPACK package :  Parallel linear algebra routines
   Shared memory     :  Shared parallel matrices
   BLAS/LAPACK       :  OpenBLAS 0.3.15  USE64BITINT DYNAMIC_ARCH NO_AFFINITY Haswell SINGLE_THREADED
        Core in use  :  Haswell
   Copyright (c) 2011-2014, The OpenBLAS Project




***************************************
The coordinates will be read from file: cluster_inp.xyz
***************************************


Your calculation utilizes the atom-pairwise dispersion correction
with the Becke-Johnson damping scheme (D3BJ)
Cite in your paper:
S.Grimme, S.Ehrlich, L.Goerigk, J Comput Chem, (2011), 32, 1456–1465 
S.Grimme, J.Antony, S.Ehrlich and H.Krieg, J.Chem.Phys., 132, (2010), 154104 
   

Your calculation employs the composite approach B97-3c by Grimme and coworkers.
For the correct reference, please check the publication list of the Grimme group:
http://www.thch.uni-bonn.de/tc/index.php?section=publikationen&subsection=grimme#2017
   

XCFun DFT library Copyright 2009-2010 Ulf Ekstrom and contributors.
See http://admol.org/xcfun for more information.
This is free software; see the source code for copying conditions.
There is ABSOLUTELY NO WARRANTY; not even for MERCHANTABILITY or FITNESS FOR A PARTICULAR PURPOSE.
For details see the documentation.
Scientific users of this library should cite U. Ekstrom, L. Visscher, R. Bast, A. J. Thorvaldsen and K. Ruud;
J.Chem.Theor.Comp. 2010, DOI: 10.1021/ct100117s
XCFun Version 0.99 

Preparing ONIOM calculation             ...         done
================================================================================

----- Orbital basis set information -----
Your calculation utilizes the basis: def2-mTZVP
----- AuxJ basis set information -----
Your calculation utilizes the basis: def2-mTZVP/J
================================================================================
                                        WARNINGS
                       Please study these warnings very carefully!
================================================================================


WARNING: The environment variable RSH_COMMAND is not set!
  ===> : All Displacements for the Numerical Hessian or Gradient calculation
         will be started on localhost

WARNING: Geometry Optimization
  ===> : Switching off AutoStart
         For restart on a previous wavefunction, please use MOREAD

INFO   : the flag for use of the SHARK integral package has been found!

================================================================================
                                       INPUT FILE
================================================================================
NAME = cluster_opt.inp
|  1> !QM/XTB2 B97-3c tightopt
|  2> !NumFreq
|  3> %pal
|  4> nprocs 24
|  5> end
|  6> %qmmm
|  7> QMAtoms {438 439 440 501 502 503 } end 
|  8> ActiveAtoms {438 439 440 501 502 503 } end 
|  9> ExtendActiveRegion no
| 10> end
| 11> %geom
| 12> MaxIter 500
| 13> end
| 14> *xyzfile 0 1 cluster_inp.xyz 
| 15> 
| 16> 
| 17>                          ****END OF INPUT****
================================================================================

------------------------------------------------------------------------------

                             **************************
                             *    2-layered ONIOM     *
                             **************************


------------------------------------------------------------------------------




Multiscale model                       ... QM1/QM2
QM2 method                             ... XTB2
Coupling Scheme                        ... subtractive
Embedding Scheme                       ... electrostatic
PrintLevel                             ... 1
Method for determining QM2 charges     ... Hirshfeld
Charge of total system                 ... 0
Charge alteration scheme               ... Charge shifting
Scaling factor for CS scheme           ... 0.06
Gradient projection scheme             ... Lever rule
Scaling factor for QM2 charges         ... 1.00
AutoFF method                          ... XTB2
AutoFF boundary                        ... no covalent bonds
Point charges in QM calc. from MM atoms... 594
              from charge shift scheme ... 0
Printing trajectories, xyz and allxyz files:
        QMMMRegion                     ... YES
        activeRegion                   ... YES
        activeRegionExt                ... NO
        qmRegion                       ... YES
        qm2Region                      ... NO
Parameter files:
        ORCA Forcefield Filename       ... cluster_opt_L_QM2.ORCAFF.prms.tmp
        QM-LA bond distances Filename  ... cluster_opt.H_DIST.prms.tmp
Forcefield type                        ... ORCA
Size of different subsystems (in atoms):
Size of QMMM System                    ... 600
Size of QM2 Subsystem                  ... 594
Size of QM1 Subsystem                  ... 6
Number of link atoms                   ... 0
Size of QM1 Subsystem plus link atoms  ... 6
Size of region for optimizer           ... 6
        optimized atoms = activeRegion ... 6
        fixed atoms (none)             ... 0
Composition of different systems (atoms start counting at 0):
QM1 Subsystem                          ... 438 439 440 501 502 503 
Active atoms                           ... 438 439 440 501 502 503 

                       *****************************
                       * Geometry Optimization Run *
                       *****************************

Geometry optimization settings:
Update method            Update   .... BFGS
Choice of coordinates    CoordSys .... Z-matrix Internals
Initial Hessian          InHess   .... Almoef's Model

Convergence Tolerances:
Energy Change            TolE     ....  1.0000e-06 Eh
Max. Gradient            TolMAXG  ....  1.0000e-04 Eh/bohr
RMS Gradient             TolRMSG  ....  3.0000e-05 Eh/bohr
Max. Displacement        TolMAXD  ....  1.0000e-03 bohr
RMS Displacement         TolRMSD  ....  6.0000e-04 bohr
Strict Convergence                ....  False
------------------------------------------------------------------------------
                        ORCA OPTIMIZATION COORDINATE SETUP
------------------------------------------------------------------------------

The optimization will be done in new redundant internal coordinates
Making redundant internal coordinates   ...  (new redundants) done
Evaluating the initial hessian          ...  (Almloef) done
Evaluating the coordinates              ...  done
Calculating the B-matrix                .... done
Calculating the G-matrix                .... done
Diagonalizing the G-matrix              .... done
The first mode is                       ....    9
The number of degrees of freedom        ....   12

    -----------------------------------------------------------------
                    Redundant Internal Coordinates


    -----------------------------------------------------------------
         Definition                    Initial Value    Approx d2E/dq
    -----------------------------------------------------------------
      1. B(O   1,H   0)                  0.9861         0.472440   
      2. B(H   2,O   1)                  0.9749         0.492192   
      3. B(O   4,H   3)                  0.9731         0.495521   
      4. B(O   4,H   2)                  1.8299         0.021283   
      5. B(H   5,H   2)                  2.2752         0.000886   
      6. B(H   5,O   4)                  0.9833         0.477276   
      7. A(H   0,O   1,H   2)          104.5139         0.314026   
      8. A(O   1,H   2,H   5)          147.2530         0.132956   
      9. A(O   4,H   2,H   5)           24.8113         0.110591   
     10. A(O   1,H   2,O   4)          170.7391         0.200561   
     11. A(H   2,O   4,H   5)          103.8429         0.199786   
     12. A(H   2,O   4,H   3)          116.1486         0.200731   
     13. A(H   3,O   4,H   5)          103.5710         0.314889   
     14. A(H   2,H   5,O   4)           51.3458         0.132651   
     15. D(O   4,H   2,O   1,H   0)     -2.4887         0.300161   
     16. D(H   5,H   2,O   1,H   0)    -29.4513         0.300161   
     17. D(H   3,O   4,H   2,O   1)     77.2014         0.001767   
     18. D(H   5,O   4,H   2,O   1)    -35.7656         0.001767   
     19. D(H   3,O   4,H   2,H   5)    112.9670         0.001767   
     20. D(H   2,H   5,O   4,H   3)   -121.7628         0.277381   
     21. D(O   4,H   5,H   2,O   1)    169.9863         0.001507   
    -----------------------------------------------------------------

Number of atoms                         .... 6
Number of degrees of freedom            .... 21

         *************************************************************
         *                GEOMETRY OPTIMIZATION CYCLE   1            *
         *************************************************************
                    ************************************                      
                    *       QM/   XTB2 SP Energy       *                      
                    ************************************                      


------------------------------------------------------------------------------
                          XTB2 - FULL SYSTEM                         
------------------------------------------------------------------------------
Running XTB calculation
---------------------------------
CARTESIAN COORDINATES (ANGSTROEM)
---------------------------------
  H     0.203478    3.037947   -0.677856
  O     0.725803    2.369797   -1.171848
  H     1.664685    2.497175   -0.897430
  H    -0.079777   -1.306593    3.144192
  O     0.312539   -0.606012    2.600509
  H    -0.163696    0.207790    2.835572
  H    -2.396580    2.419991   -0.538174
  O    -2.187499    1.947736    0.285221
  H    -2.203005    1.000380    0.058677
  H    -4.664673    0.554032    2.175409
  O    -4.983557   -0.378917    2.185364
  H    -4.476685   -0.855933    1.520106
  H     0.062182   -0.304603    0.946158
  O    -0.135440   -0.065857    0.019766
  H     0.206102    0.830223   -0.099142
  H    -0.160755   -3.578028    3.766959
  O    -0.439450   -2.748427    4.188596
  H     0.206429   -2.579555    4.891090
  H    -4.885443    2.539368    1.326751
  O    -4.247153    2.127283    1.940972
  H    -3.403812    2.110151    1.429097
  H    -3.244391    3.911541   -2.211824
  O    -2.508249    3.312497   -1.981618
  H    -2.148817    3.026800   -2.841599
  H    -0.130117   -3.799929    0.491799
  O     0.209987   -2.983245    0.910978
  H    -0.576846   -2.496788    1.223815
  H    -2.381382   -1.534789    2.460872
  O    -2.193859   -1.999862    1.618971
  H    -2.449547   -1.410192    0.890661
  H     2.071111   -1.437811   -1.127383
  O     2.301769   -1.692370   -0.210163
  H     1.512097   -2.120065    0.172405
  H    -1.390459    1.828774    1.909618
  O    -1.484467    1.429239    2.784523
  H    -1.468930    2.140012    3.451219
  H     0.205946   -2.694743   -1.579657
  O    -0.549740   -2.082840   -1.632922
  H    -0.369373   -1.357331   -0.998127
  H    -3.439558   -2.914879   -0.402218
  O    -2.725032   -3.406938   -0.827535
  H    -2.011988   -2.777633   -1.040985
  H     2.769801    0.126357    2.930497
  O     2.867771   -0.058265    3.891912
  H     2.960096    0.833675    4.298463
  H    -3.523869    6.390862   -0.538394
  O    -3.284549    7.054275   -1.237394
  H    -3.141915    7.898499   -0.765668
  H     3.900558    0.583387    1.184356
  O     2.949707    0.402365    1.299426
  H     2.712283   -0.348689    0.718408
  H    -5.780989    0.858451   -1.610951
  O    -4.870116    1.183975   -1.484369
  H    -4.979778    2.011958   -0.971517
  H    -1.208963    5.400344    2.214100
  O    -1.834574    4.653924    2.095769
  H    -1.913097    4.233872    2.957556
  H     3.494774    2.764290    0.427185
  O     3.246760    2.723254   -0.512062
  H     3.579229    1.881232   -0.864067
  H     1.487030   -4.688984   -2.263618
  O     1.551003   -3.912400   -1.689353
  H     2.346753   -3.451677   -2.038700
  H    -0.920945   -0.073491   -2.552673
  O    -0.287202    0.579290   -2.876514
  H    -0.025415    1.160153   -2.138794
  H     1.693325   -4.681375   -0.192133
  O     1.798455   -5.319550    0.549771
  H     1.335208   -6.130088    0.251703
  H    -1.227152   -3.253359   -2.889706
  O    -1.059463   -3.935552   -3.553131
  H    -0.930306   -4.783910   -3.087080
  H    -2.781268    3.309118    4.704094
  O    -1.800072    3.305128    4.670385
  H    -1.508052    2.901716    5.506149
  H     0.963288    5.032076    4.080549
  O     0.017362    5.264956    4.132622
  H    -0.455313    4.461717    4.388948
  H    -1.737141   -4.642536   -0.386171
  O    -0.972650   -5.184379   -0.102186
  H    -1.320207   -5.872149    0.475048
  H    -3.911998    5.846906   -2.594625
  O    -4.263421    5.013880   -2.926523
  H    -4.107521    4.981012   -3.894637
  H    -2.436875   -3.684611    1.923361
  O    -2.456892   -4.589966    2.296224
  H    -1.517389   -4.829216    2.437530
  H    -4.697807   -2.964128   -2.908194
  O    -3.848432   -3.198944   -3.319696
  H    -3.513809   -3.991014   -2.853436
  H     0.336699    1.373897    4.612703
  O     0.843176    2.134227    4.280280
  H     0.892863    2.791736    4.988474
  H    -4.659386   -5.157652   -1.586832
  O    -5.363849   -4.804566   -1.015816
  H    -5.151794   -5.158431   -0.130794
  H     2.319883   -6.471398   -4.055120
  O     1.982849   -6.143702   -3.201030
  H     2.416584   -6.719410   -2.538951
  H     0.463855   -3.366709   -4.016932
  O     1.266908   -2.998984   -4.438019
  H     0.949235   -2.626344   -5.286795
  H     1.959469   -1.754668    2.974567
  O     2.113356   -2.685408    2.755683
  H     1.427808   -2.896938    2.087817
  H    -3.016524   -1.794040   -3.219368
  O    -2.594250   -0.908468   -3.153122
  H    -3.248157   -0.260445   -3.471671
  H    -3.187583    4.982920    1.082130
  O    -3.969013    5.357517    0.628030
  H    -4.383643    5.914882    1.335022
  H     0.875488    2.253751    2.590449
  O     0.976459    2.250393    1.619232
  H     1.703360    1.627277    1.454300
  H     0.195016    5.664120   -0.752852
  O     0.717223    6.326359   -1.260499
  H     0.860177    7.125046   -0.703274
  H     0.347274    7.036843    2.598740
  O    -0.015006    6.658038    1.780626
  H     0.648648    5.987479    1.518171
  H    -2.483089    0.217670    3.334960
  O    -2.706045   -0.597389    3.837798
  H    -1.945972   -0.638572    4.460136
  H    -0.898280    0.549524    6.020593
  O    -0.624785    0.030996    5.245320
  H     0.088357   -0.573410    5.531203
  H     0.702010   -4.993030    1.966248
  O     0.158386   -5.103593    2.769723
  H     0.302706   -6.024662    3.040654
  H    -2.128781   -8.081329    0.426890
  O    -1.806568   -7.594333    1.212792
  H    -2.592674   -7.284139    1.669776
  H    -0.372973    6.874503   -2.318271
  O    -1.118929    7.295878   -2.817103
  H    -1.909122    7.169480   -2.253868
  H    -1.111016    4.315704    0.576146
  O    -0.737836    4.377795   -0.319784
  H    -1.444453    4.137990   -0.952816
  H    -4.410113    2.751433    3.504712
  O    -4.409122    2.919987    4.469540
  H    -4.493349    2.036311    4.877051
  H     2.016693   -3.586659    4.233440
  O     1.951607   -4.060392    5.085706
  H     2.459353   -3.525734    5.717563
  H     4.682555   -3.195744    0.830193
  O     4.522477   -3.118084   -0.136201
  H     3.664223   -2.639719   -0.219122
  H    -2.723940   -0.736684   -1.359327
  O    -3.052919   -0.469113   -0.484885
  H    -3.851609    0.059511   -0.691282
  H    -1.615759   -0.743905   -4.637515
  O    -1.110202   -0.527624   -5.441928
  H    -0.398960    0.067451   -5.156818
  H     1.793332   -1.704766   -3.384842
  O     1.885450   -0.959386   -2.759882
  H     1.109309   -0.380861   -2.891041
  H     3.656906   -3.125493    2.541350
  O     4.615698   -3.355193    2.468179
  H     4.669574   -4.315627    2.593193
  H     3.416523   -6.125434    3.108190
  O     3.772682   -5.923229    2.208501
  H     3.035811   -5.575819    1.665958
  H    -3.342001    1.627179   -4.182348
  O    -4.187239    1.156056   -3.992291
  H    -4.405123    1.302302   -3.035736
  H    -5.079518    4.158745    0.066818
  O    -5.519205    3.293409   -0.039166
  H    -6.449402    3.414826   -0.320270
  H     6.731635   -1.181473   -1.367304
  O     5.959201   -1.032061   -0.815646
  H     5.539436   -1.899810   -0.619887
  H     4.589643   -3.164053   -2.479567
  O     3.721993   -2.991209   -2.895425
  H     3.725414   -3.608511   -3.652902
  H     4.427971   -2.303530    5.614182
  O     4.083922   -2.770316    6.406115
  H     4.418407   -3.675413    6.323026
  H    -0.751606    6.335217    5.081185
  O    -1.348068    6.910604    5.620005
  H    -1.360302    7.788539    5.180204
  H     4.697349   -0.133281   -1.469908
  O     3.930445    0.410264   -1.731924
  H     3.237757   -0.189137   -2.063544
  H    -0.737859    4.537658   -4.034697
  O    -1.520281    5.081541   -4.241644
  H    -1.367877    5.947496   -3.817904
  H     0.662359    3.213668   -2.657298
  O     0.669760    3.591830   -3.565184
  H     0.717323    2.829447   -4.152062
  H    -5.392279   -5.184677    1.777279
  O    -4.696593   -5.778323    1.418543
  H    -3.855209   -5.365618    1.691915
  H     7.879190   -1.686540   -4.038986
  O     7.621280   -1.374574   -3.138840
  H     7.135541   -0.529890   -3.294131
  H     3.695957   -5.061288   -5.303561
  O     4.458289   -4.689417   -4.820987
  H     4.842022   -5.402128   -4.276893
  H    -3.788478    0.019064    4.927844
  O    -4.389219    0.482655    5.560718
  H    -5.050034   -0.175262    5.851514
  H     3.456126   -5.940111   -0.534500
  O     4.329255   -5.693106   -0.851196
  H     4.406517   -4.731133   -0.705890
  H     4.999991   -0.328542   -4.164380
  O     4.463612   -1.038341   -4.555616
  H     4.137088   -1.622968   -3.839057
  H    -1.171553    1.586427   -3.939738
  O    -1.822139    2.207277   -4.324889
  H    -1.463360    2.540878   -5.170109
  H     4.877126   -6.317999   -2.330059
  O     5.209966   -6.641531   -3.196149
  H     6.027254   -7.123926   -3.010143
  H     8.733709   -5.091242   -2.929493
  O     8.041785   -5.509106   -2.372027
  H     8.075294   -6.466292   -2.475926
  H     2.341042    4.721918    0.455720
  O     1.761291    4.703163    1.226513
  H     1.403010    3.783122    1.302447
  H    -4.422411   -2.631473    4.219400
  O    -5.316027   -2.291125    4.016414
  H    -5.177961   -1.508448    3.443337
  H    -5.852311   -3.185271    1.304379
  O    -6.317183   -3.742695    1.970786
  H    -6.127761   -3.309705    2.822553
  H     1.685164    3.460223    6.864085
  O     1.062835    3.977150    6.330838
  H     0.279956    4.130322    6.902556
  H     4.994837   -2.175850    3.608879
  O     5.015666   -1.458804    4.274312
  H     4.204552   -0.901395    4.118255
  H     2.380020   -5.582512    4.824108
  O     2.759142   -6.466260    4.562587
  H     2.013620   -7.046782    4.387310
  H     2.252157   -4.501495   -6.803558
  O     2.082997   -4.990487   -5.988305
  H     1.818888   -4.300328   -5.332040
  H     6.433131   -4.104300   -0.513837
  O     7.185674   -4.508846   -0.050801
  H     7.692887   -4.930952   -0.772062
  H    -1.725837    4.484135    7.703009
  O    -0.827023    4.580558    8.088870
  H    -0.645039    5.539494    8.115089
  H    -5.112769    5.714838   -5.593845
  O    -4.506392    4.950381   -5.615138
  H    -3.748532    5.164968   -6.180378
  H     3.279055   -2.511194   -8.446064
  O     3.190567   -3.043525   -7.644627
  H     4.067511   -3.021947   -7.216424
  H    -0.651894    8.837638   -2.268585
  O    -0.528442    9.664998   -1.748152
  H     0.233567    9.488945   -1.171536
  H     2.060852   -0.918460    5.205470
  O     1.486881   -1.444546    5.791561
  H     1.581172   -1.101287    6.689526
  H     5.203215   -2.014721   -5.700257
  O     5.548984   -2.780452   -6.223167
  H     5.273830   -3.571061   -5.707291
  H     5.685211   -5.224189    4.673560
  O     5.162669   -5.140008    5.500174
  H     4.440751   -5.771355    5.413383
  H    -3.978420    1.144193    7.002185
  O    -3.786150    1.618284    7.846843
  H    -4.661895    2.004492    8.108048
  H    -1.843224    9.624007   -0.735172
  O    -2.704029    9.497490   -0.261346
  H    -3.314322   10.127472   -0.648182
  H    -5.944648    4.707533   -2.938349
  O    -6.853574    4.589085   -3.282301
  H    -6.763586    3.888423   -3.961041
  H     0.084603   -7.057196   -1.161365
  O     0.548092   -7.494227   -0.413935
  H    -0.131395   -7.690206    0.234197
  H    -7.635210    3.809420   -1.975106
  O    -7.897876    3.221120   -1.236411
  H    -7.755119    2.313204   -1.577428
  H     3.967285   -0.903582    6.981080
  O     3.976733    0.060581    6.973490
  H     4.789580    0.350434    6.542870
  H     2.262425    5.801549   -1.174289
  O     3.197529    5.507578   -1.060080
  H     3.374004    4.968774   -1.854218
  H     6.541273   -5.932819    0.658596
  O     6.171719   -6.669618    1.191009
  H     5.267348   -6.392069    1.417780
  H    -3.869173    4.726055    7.782232
  O    -3.302938    4.263764    7.122491
  H    -3.497203    3.320364    7.231516
  H     5.751011   -7.947055    0.120807
  O     5.462558   -8.632884   -0.517768
  H     4.633999   -8.305820   -0.912001
  H    -0.560927    2.035164    7.691291
  O    -1.194058    1.972314    6.955931
  H    -2.062749    1.831052    7.352134
  H    -6.384755   -0.109365    1.053635
  O    -6.706315   -0.193367    0.141037
  H    -7.625968   -0.460583    0.161006
  H    -5.378585   -3.051106   -0.600804
  O    -5.125310   -2.350166    0.025566
  H    -5.694757   -1.575995   -0.158775
  H     4.320828    5.578313    0.325919
  O     4.654390    5.677044    1.231455
  H     3.960313    6.187390    1.684291
  H    -9.049686   -1.725006   -2.262406
  O    -8.498336   -1.527411   -1.478496
  H    -8.628055   -2.263153   -0.839990
  H    -5.522371    3.492578   -5.528925
  O    -6.039944    2.780877   -5.115949
  H    -5.373459    2.195134   -4.702837
  H     3.178507   -0.876630   -5.661118
  O     2.322356   -0.995179   -6.126849
  H     2.407828   -1.843110   -6.602515
  H     8.112207   -1.343032   -6.034072
  O     8.119288   -2.207626   -5.578753
  H     7.262884   -2.606457   -5.830501
  H     7.620923    0.998612   -6.311231
  O     7.431263    0.151074   -6.725679
  H     6.449898    0.102117   -6.762532
  H    -7.868425   -3.677726    0.917789
  O    -8.545703   -3.569486    0.232287
  H    -8.449012   -4.329649   -0.368218
  H    -2.401313    8.743581    1.301565
  O    -2.251521    8.153502    2.053605
  H    -1.481692    7.600145    1.830265
  H    -4.441028    6.441036    3.500972
  O    -4.610601    6.868275    2.644935
  H    -3.846709    7.453927    2.506551
  H     3.402784    3.454560   -3.575821
  O     3.250342    4.423787   -3.480679
  H     2.285654    4.489747   -3.588785
  H    -6.119343   -1.585174   -3.451731
  O    -6.206882   -2.172155   -2.673780
  H    -6.986578   -1.861427   -2.159894
  H     6.464386    1.040420    4.738171
  O     6.070549    1.578386    5.441846
  H     6.259607    2.497374    5.152471
  H     1.361960    1.736014   -5.824684
  O     1.166040    1.138915   -5.071654
  H     1.529770    0.276241   -5.342688
  H    -2.492704    2.954939   10.482948
  O    -2.281465    2.047544   10.208168
  H    -2.879148    1.849823    9.475276
  H     7.622931   -0.505721    3.079788
  O     6.873334    0.070335    3.249249
  H     6.180466   -0.529946    3.627585
  H    -5.670768   -8.040797   -0.721330
  O    -4.936859   -8.110792   -0.074442
  H    -4.939979   -7.294554    0.449087
  H    -5.178685   -0.099413   -4.722330
  O    -5.796891   -0.810154   -4.963446
  H    -6.633704   -0.365505   -5.161478
  H     1.889081   -0.182295   -7.520140
  O     1.688035    0.291690   -8.362917
  H     2.263627   -0.113376   -9.017118
  H     4.870274   -1.377343   -9.310457
  O     3.945560   -1.146504   -9.592224
  H     3.924793   -1.264185  -10.541311
  H     7.556454   -2.580637    4.192935
  O     7.703483   -2.615194    3.233432
  H     7.209569   -3.405197    2.960112
  H     6.710250   -5.901280    2.671891
  O     6.772318   -5.227315    3.374219
  H     7.648036   -5.313949    3.792142
  H    -1.815468    8.950272    3.506070
  O    -1.567766    9.253137    4.405009
  H    -2.416555    9.385912    4.860404
  H    -7.389870    1.590196   -5.255673
  O    -7.965700    0.846116   -5.012213
  H    -8.866769    1.247890   -4.935558
  H     6.924634   -1.071118   -8.409155
  O     6.341786   -1.790941   -8.674108
  H     6.113330   -2.242190   -7.843103
  H    -1.671195    6.260606   -7.018259
  O    -2.070382    5.435702   -6.745478
  H    -1.821761    5.303197   -5.782188
  H    -0.001721    3.302509    9.023737
  O     0.194089    2.382054    9.277271
  H    -0.604622    2.118041    9.783187
  H     6.750715   -2.777144   -2.712696
  O     6.219359   -3.521322   -2.372907
  H     6.687080   -4.332258   -2.620632
  H    -4.082836   -3.053355   -4.947980
  O    -4.253819   -2.950622   -5.911984
  H    -4.786547   -2.147674   -5.971342
  H     1.976627    2.173960    8.464597
  O     2.640562    2.286735    7.774674
  H     3.062086    1.416303    7.658177
  H    -6.916037   -5.184682   -1.410672
  O    -7.832556   -5.451378   -1.657817
  H    -7.966623   -5.048384   -2.538722
  H    -3.826486    5.257971    5.699676
  O    -3.792830    6.027091    5.109816
  H    -2.858623    6.320556    5.204761
  H    -7.888163    0.106937   -1.973324
  O    -7.396225    0.829085   -2.386505
  H    -7.625380    0.821273   -3.339526
  H     5.834326    0.128877    0.408980
  O     5.612751    0.849563    1.030977
  H     6.122733    0.652706    1.843690
  H    -6.217306    3.313144    7.394775
  O    -6.090161    2.793378    8.222576
  H    -6.691317    2.032936    8.133066
  H     2.266209   -8.069245   -0.859917
  O     2.943202   -8.055801   -1.556061
  H     2.717767   -8.768606   -2.170595
  H    -2.747929   -3.942337   -6.214221
  O    -1.999749   -4.511481   -5.975356
  H    -1.721849   -4.219342   -5.078994
  H    -5.644555    3.766211    5.308849
  O    -6.293685    4.162356    5.926243
  H    -6.128772    5.106200    5.914876
  H    -1.028784   -7.101273   -3.180825
  O    -0.556561   -6.432666   -2.650723
  H     0.351578   -6.364385   -3.030716
  H     4.441880    2.009712    5.128821
  O     3.500488    2.250216    5.008825
  H     3.116089    2.265554    5.890689
  H     4.109483    4.648944    6.305206
  O     4.191251    5.379997    5.688320
  H     3.623589    5.141305    4.916914
  H     2.764472    3.614570    3.924908
  O     2.587760    4.555078    3.760328
  H     2.468794    4.655315    2.794032
  H     9.390852    0.208200   -1.072811
  O     8.584818    0.371283   -0.579320
  H     8.407974   -0.448118   -0.087500
  H    -2.101738    5.313241   10.654100
  O    -2.824524    4.685115   10.884231
  H    -3.043005    4.861285   11.799589
  H     7.966303   -3.012946    0.320310
  O     8.388157   -2.167069    0.576918
  H     8.322193   -2.163678    1.539221
  H     5.370478    3.659753    3.527931
  O     6.026801    3.923337    4.194765
  H     5.614889    4.641119    4.697496
  H    -4.209819    5.019231    9.787103
  O    -4.842541    5.171732    9.065065
  H    -5.455223    4.423801    9.061554
  H    -7.032635   -3.418055   -3.418330
  O    -7.645069   -4.030457   -3.889770
  H    -7.088194   -4.461980   -4.563700
  H     0.027634    6.119116   10.776181
  O    -0.836565    6.451705   10.529165
  H    -0.720079    6.883563    9.663596
  H     2.588790    1.505336   -4.106950
  O     3.467288    1.857037   -3.867467
  H     3.787151    1.340509   -3.097757
  H    -6.978612   -0.214640    7.212729
  O    -7.486372    0.564036    7.493966
  H    -8.109171    0.749245    6.790010
  H    -2.755828   -9.862629   -0.851814
  O    -2.692366   -8.920540   -1.008972
  H    -3.597726   -8.554412   -0.768180
  H   -10.067045    3.101124   -4.902152
  O   -10.184520    2.183600   -4.621601
  H   -10.400866    2.268206   -3.671902
  H    -2.075833   -3.022368    4.604198
  O    -2.951568   -3.461221    4.672551
  H    -2.945580   -4.078412    3.915849
  H    -0.191178   -7.979952    2.468234
  O     0.635104   -7.770572    2.916745
  H     1.353469   -8.066620    2.330027
  H     6.698079   -2.386900    6.386175
  O     7.146704   -3.096546    5.921663
  H     6.515902   -3.830598    5.882080
  H    -5.280007   -2.000772    6.934642
  O    -5.955654   -1.501384    6.451091
  H    -5.939716   -1.877220    5.541555
  H     0.838323    3.049565   -7.114504
  O     1.755406    2.717470   -7.170352
  H     1.741178    1.971103   -7.797661
  H    -3.950140    8.758550    6.680544
  O    -3.948177    8.757605    5.723174
  H    -4.074325    7.830545    5.454251
  H    -2.050585   10.327671   -2.726688
  O    -2.952026   10.510454   -3.028422
  H    -2.879613   11.145552   -3.740242
  H     9.401497   -4.072282    4.035918
  O     9.120660   -4.750909    4.657454
  H     8.691720   -4.279025    5.382230
  H    -0.742676   -5.982887   -5.857906
  O    -0.040631   -6.547049   -5.517715
  H     0.795683   -6.088820   -5.738692
  H     1.831567    8.279119    0.672881
  O     1.528676    8.602446   -0.204290
  H     2.343482    8.640403   -0.734605
  H     3.500174    2.942780   -6.661695
  O     4.327387    2.651272   -6.252586
  H     4.081710    2.376232   -5.344278
  H     3.738483    7.129338   -1.222713
  O     3.945213    8.065141   -1.434831
  H     4.314651    8.009864   -2.328126
  H     4.393986    0.006025   -7.915498
  O     4.770631    0.150847   -7.045616
  H     4.590145    1.082710   -6.801154
  H     6.029746    1.933309   -0.475571
  O     6.595285    2.127040   -1.237027
  H     7.419315    1.646120   -1.043805
  H     6.671588   -8.430443   -1.622881
  O     7.307996   -8.219158   -2.358807
  H     7.673703   -9.053295   -2.648308
  H    -5.180147   -5.723529   -5.359303
  O    -5.827192   -5.097073   -5.727833
  H    -5.285215   -4.305208   -5.942586
  H     0.685390    7.168477    7.607757
  O    -0.216210    7.196395    7.967098
  H    -0.771527    7.213075    7.149551
  H    -8.902724   -2.806623   -4.118949
  O    -9.422383   -2.000231   -3.946745
  H    -9.137239   -1.330796   -4.572597
  H    -2.419560   -5.974391   -2.155062
  O    -3.297033   -5.686889   -2.425110
  H    -3.481020   -6.062373   -3.311027
  H    -2.994708   -5.881408   -5.428757
  O    -3.598263   -6.482658   -4.948565
  H    -3.126656   -7.310956   -4.792626
  H    -1.388055    3.746250   -6.982273
  O    -0.849281    2.989400   -6.711541
  H    -1.085983    2.205479   -7.263431
  H    -0.205032    0.437718   -8.220824
  O    -1.100422    0.674089   -7.936148
  H    -1.276171    0.148653   -7.139748
  H   -10.421449    4.076773   -2.735206
  O   -10.489070    3.296422   -2.169357
  H    -9.660338    3.269477   -1.659430
  H     4.581212    4.079449    1.723149
  O     4.371673    3.158225    1.999960
  H     5.087074    2.582001    1.718111
  H     6.484953    1.403817   -4.220728
  O     6.180864    0.779147   -3.527680
  H     6.212416    1.273305   -2.683161
  H     9.627272   -2.229344   -0.935414
  O     9.904359   -2.013539   -1.834710
  H     9.104393   -1.673589   -2.277895
  H     9.962935   -3.321165   -3.106251
  O     9.695132   -3.971938   -3.782069
  H     9.302253   -3.462926   -4.501791
  H    -7.708621   -8.558235   -1.686039
  O    -6.972695   -7.961784   -1.815753
  H    -7.350921   -7.049849   -1.799731
  H     4.165106    6.089048   -3.815491
  O     4.826851    6.789484   -3.729044
  H     5.662615    6.334468   -3.592392
  H     0.086064   -8.155447   -5.233316
  O     0.108224   -9.138318   -5.101075
  H     0.253429   -9.502438   -5.974435
  H    -2.345440   -8.659579   -2.737085
  O    -2.114278   -8.391256   -3.645715
  H    -1.469362   -9.009006   -4.009422
  H     2.168792  -10.806437   -3.517536
  O     2.122825   -9.851972   -3.490163
  H     1.338357   -9.579597   -4.017206
  H     6.837226    3.336722   -4.572817
  O     6.894703    2.659347   -5.274481
  H     6.101610    2.794156   -5.815323
  H    -3.573655   -3.722557    7.710179
  O    -3.687559   -2.934169    7.180900
  H    -3.435848   -3.172138    6.262479
  H    -0.641839   -3.344448   -6.737397
  O    -0.011564   -2.613313   -6.739222
  H    -0.493601   -1.837877   -6.398432
  H     0.636864    0.454412    8.748859
  O     0.643558   -0.259453    8.107236
  H    -0.278991   -0.547123    8.019142
  H    -5.828056    7.389314   -4.246388
  O    -6.331694    6.771646   -4.808156
  H    -6.619753    6.040661   -4.217820
  H    -4.271414    9.120862   -3.255334
  O    -4.807860    8.325054   -3.150175
  H    -4.399984    7.844267   -2.411806
  H    -9.707773    5.822632   -4.643660
  O   -10.241949    5.018056   -4.481950
  H   -11.122291    5.220913   -4.800256
  H     2.771187    6.510675    6.146101
  O     1.811165    6.608080    6.243907
  H     1.466645    5.695270    6.140102
  H     4.809796    8.549137    0.093286
  O     5.126879    8.548227    1.014330
  H     5.533050    7.683382    1.143994
  H     4.131913   -7.417456   -4.357709
  O     3.373019   -7.699673   -4.900095
  H     3.091944   -8.541501   -4.526496
  H     0.382482    8.660554    4.242922
  O     1.059373    8.015402    4.013868
  H     1.285360    7.521221    4.827868
  H     5.237295    4.197349   -3.154948
  O     6.198686    4.166370   -3.101954
  H     6.406893    3.583462   -2.355064
  H    -2.584921   -1.545683    7.565885
  O    -2.073762   -0.753267    7.786794
  H    -2.698676   -0.126936    8.162332
  H    -9.021606    7.961856   -4.141127
  O    -8.959147    7.377174   -4.897892
  H    -8.002202    7.213103   -5.033874
  H     3.515846   -8.978823    1.072714
  O     2.840095   -8.346467    1.322629
  H     3.315894   -7.542233    1.603666
  H     3.589633    8.172651    1.837668
  O     2.798436    7.609880    1.949055
  H     2.352451    7.844894    2.775506

----------------------------
CARTESIAN COORDINATES (A.U.)
----------------------------
  NO LB    ZA    FRAG    MASS        X           Y           Z
   0 H   1.0000    0     1.008    0.384518    5.740888   -1.280962
   1 O   8.0000    0    15.999    1.371569    4.478267   -2.214472
   2 H   1.0000    0     1.008    3.145799    4.718977   -1.695897
   3 H   1.0000    0     1.008   -0.150757   -2.469103    5.941662
   4 O   8.0000    0    15.999    0.590613   -1.145197    4.914250
   5 H   1.0000    0     1.008   -0.309341    0.392666    5.358455
   6 H   1.0000    0     1.008   -4.528880    4.573120   -1.017001
   7 O   8.0000    0    15.999   -4.133774    3.680688    0.538990
   8 H   1.0000    0     1.008   -4.163076    1.890444    0.110883
   9 H   1.0000    0     1.008   -8.814954    1.046969    4.110927
  10 O   8.0000    0    15.999   -9.417558   -0.716049    4.129739
  11 H   1.0000    0     1.008   -8.459709   -1.617479    2.872584
  12 H   1.0000    0     1.008    0.117507   -0.575616    1.787979
  13 O   8.0000    0    15.999   -0.255945   -0.124452    0.037352
  14 H   1.0000    0     1.008    0.389476    1.568894   -0.187351
  15 H   1.0000    0     1.008   -0.303783   -6.761493    7.118521
  16 O   8.0000    0    15.999   -0.830440   -5.193774    7.915299
  17 H   1.0000    0     1.008    0.390094   -4.874652    9.242821
  18 H   1.0000    0     1.008   -9.232149    4.798710    2.507196
  19 O   8.0000    0    15.999   -8.025956    4.019982    3.667906
  20 H   1.0000    0     1.008   -6.432272    3.987607    2.700602
  21 H   1.0000    0     1.008   -6.131010    7.391741   -4.179742
  22 O   8.0000    0    15.999   -4.739904    6.259712   -3.744715
  23 H   1.0000    0     1.008   -4.060676    5.719823   -5.369844
  24 H   1.0000    0     1.008   -0.245885   -7.180825    0.929365
  25 O   8.0000    0    15.999    0.396818   -5.637516    1.721499
  26 H   1.0000    0     1.008   -1.090081   -4.718246    2.312675
  27 H   1.0000    0     1.008   -4.500160   -2.900331    4.650374
  28 O   8.0000    0    15.999   -4.145793   -3.779191    3.059412
  29 H   1.0000    0     1.008   -4.628973   -2.664877    1.683105
  30 H   1.0000    0     1.008    3.913833   -2.717069   -2.130445
  31 O   8.0000    0    15.999    4.349713   -3.198116   -0.397151
  32 H   1.0000    0     1.008    2.857449   -4.006342    0.325798
  33 H   1.0000    0     1.008   -2.627587    3.455882    3.608655
  34 O   8.0000    0    15.999   -2.805236    2.700870    5.261986
  35 H   1.0000    0     1.008   -2.775875    4.044037    6.521859
  36 H   1.0000    0     1.008    0.389182   -5.092326   -2.985119
  37 O   8.0000    0    15.999   -1.038858   -3.935997   -3.085775
  38 H   1.0000    0     1.008   -0.698014   -2.564984   -1.886187
  39 H   1.0000    0     1.008   -6.499823   -5.508323   -0.760082
  40 O   8.0000    0    15.999   -5.149564   -6.438180   -1.563815
  41 H   1.0000    0     1.008   -3.802106   -5.248966   -1.967177
  42 H   1.0000    0     1.008    5.234165    0.238780    5.537837
  43 O   8.0000    0    15.999    5.419302   -0.110105    7.354648
  44 H   1.0000    0     1.008    5.593771    1.575417    8.122918
  45 H   1.0000    0     1.008   -6.659147   12.076979   -1.017417
  46 O   8.0000    0    15.999   -6.206898   13.330648   -2.338336
  47 H   1.0000    0     1.008   -5.937359   14.926000   -1.446903
  48 H   1.0000    0     1.008    7.370986    1.102442    2.238108
  49 O   8.0000    0    15.999    5.574138    0.760360    2.455559
  50 H   1.0000    0     1.008    5.125472   -0.658927    1.357594
  51 H   1.0000    0     1.008  -10.924486    1.622237   -3.044256
  52 O   8.0000    0    15.999   -9.203185    2.237388   -2.805051
  53 H   1.0000    0     1.008   -9.410417    3.802050   -1.835901
  54 H   1.0000    0     1.008   -2.284609   10.205171    4.184043
  55 O   8.0000    0    15.999   -3.466842    8.794642    3.960429
  56 H   1.0000    0     1.008   -3.615229    8.000859    5.588971
  57 H   1.0000    0     1.008    6.604166    5.223751    0.807263
  58 O   8.0000    0    15.999    6.135487    5.146204   -0.967657
  59 H   1.0000    0     1.008    6.763763    3.555013   -1.632850
  60 H   1.0000    0     1.008    2.810079   -8.860896   -4.277618
  61 O   8.0000    0    15.999    2.930971   -7.393365   -3.192415
  62 H   1.0000    0     1.008    4.434720   -6.522724   -3.852585
  63 H   1.0000    0     1.008   -1.740334   -0.138878   -4.823853
  64 O   8.0000    0    15.999   -0.542733    1.094699   -5.435824
  65 H   1.0000    0     1.008   -0.048027    2.192371   -4.041735
  66 H   1.0000    0     1.008    3.199921   -8.846517   -0.363079
  67 O   8.0000    0    15.999    3.398587  -10.052493    1.038917
  68 H   1.0000    0     1.008    2.523177  -11.584187    0.475650
  69 H   1.0000    0     1.008   -2.318981   -6.147958   -5.460753
  70 O   8.0000    0    15.999   -2.002095   -7.437115   -6.714445
  71 H   1.0000    0     1.008   -1.758024   -9.040280   -5.833736
  72 H   1.0000    0     1.008   -5.255835    6.253327    8.889449
  73 O   8.0000    0    15.999   -3.401643    6.245787    8.825749
  74 H   1.0000    0     1.008   -2.849805    5.483449   10.405114
  75 H   1.0000    0     1.008    1.820351    9.509246    7.711120
  76 O   8.0000    0    15.999    0.032809    9.949325    7.809524
  77 H   1.0000    0     1.008   -0.860417    8.431423    8.293910
  78 H   1.0000    0     1.008   -3.282721   -8.773122   -0.729757
  79 O   8.0000    0    15.999   -1.838042   -9.797056   -0.193104
  80 H   1.0000    0     1.008   -2.494830  -11.096753    0.897711
  81 H   1.0000    0     1.008   -7.392605   11.049051   -4.903131
  82 O   8.0000    0    15.999   -8.056698    9.474860   -5.530327
  83 H   1.0000    0     1.008   -7.762090    9.412749   -7.359797
  84 H   1.0000    0     1.008   -4.605026   -6.962906    3.634626
  85 O   8.0000    0    15.999   -4.642853   -8.673779    4.339235
  86 H   1.0000    0     1.008   -2.867450   -9.125896    4.606264
  87 H   1.0000    0     1.008   -8.877569   -5.601390   -5.495690
  88 O   8.0000    0    15.999   -7.272483   -6.045128   -6.273316
  89 H   1.0000    0     1.008   -6.640137   -7.541923   -5.392213
  90 H   1.0000    0     1.008    0.636269    2.596289    8.716745
  91 O   8.0000    0    15.999    1.593372    4.033105    8.088557
  92 H   1.0000    0     1.008    1.687267    5.275616    9.426850
  93 H   1.0000    0     1.008   -8.804963   -9.746550   -2.998678
  94 O   8.0000    0    15.999  -10.136206   -9.079314   -1.919614
  95 H   1.0000    0     1.008   -9.735480   -9.748022   -0.247165
  96 H   1.0000    0     1.008    4.383944  -12.229170   -7.663066
  97 O   8.0000    0    15.999    3.747042  -11.609914   -6.049070
  98 H   1.0000    0     1.008    4.566682  -12.697845   -4.797922
  99 H   1.0000    0     1.008    0.876559   -6.362158   -7.590901
 100 O   8.0000    0    15.999    2.394109   -5.667258   -8.386640
 101 H   1.0000    0     1.008    1.793794   -4.963071   -9.990595
 102 H   1.0000    0     1.008    3.702860   -3.315842    5.621117
 103 O   8.0000    0    15.999    3.993664   -5.074686    5.207486
 104 H   1.0000    0     1.008    2.698166   -5.474419    3.945402
 105 H   1.0000    0     1.008   -5.700404   -3.390244   -6.083724
 106 O   8.0000    0    15.999   -4.902422   -1.716756   -5.958537
 107 H   1.0000    0     1.008   -6.138127   -0.492170   -6.560507
 108 H   1.0000    0     1.008   -6.023659    9.416354    2.044929
 109 O   8.0000    0    15.999   -7.500348   10.124240    1.186805
 110 H   1.0000    0     1.008   -8.283885   11.177507    2.522826
 111 H   1.0000    0     1.008    1.654433    4.258972    4.895239
 112 O   8.0000    0    15.999    1.845240    4.252626    3.059905
 113 H   1.0000    0     1.008    3.218884    3.075108    2.748229
 114 H   1.0000    0     1.008    0.368527   10.703636   -1.422684
 115 O   8.0000    0    15.999    1.355355   11.955086   -2.381998
 116 H   1.0000    0     1.008    1.625499   13.464386   -1.328995
 117 H   1.0000    0     1.008    0.656253   13.297706    4.910907
 118 O   8.0000    0    15.999   -0.028357   12.581868    3.364895
 119 H   1.0000    0     1.008    1.225767   11.314696    2.868927
 120 H   1.0000    0     1.008   -4.692358    0.411337    6.302161
 121 O   8.0000    0    15.999   -5.113684   -1.128902    7.252387
 122 H   1.0000    0     1.008   -3.677354   -1.206726    8.428436
 123 H   1.0000    0     1.008   -1.697503    1.038450   11.377272
 124 O   8.0000    0    15.999   -1.180673    0.058574    9.912218
 125 H   1.0000    0     1.008    0.166971   -1.083588   10.452459
 126 H   1.0000    0     1.008    1.326607   -9.435459    3.715670
 127 O   8.0000    0    15.999    0.299306   -9.644393    5.234018
 128 H   1.0000    0     1.008    0.572031  -11.384961    5.746003
 129 H   1.0000    0     1.008   -4.022813  -15.271499    0.806705
 130 O   8.0000    0    15.999   -3.413919  -14.351210    2.291845
 131 H   1.0000    0     1.008   -4.899444  -13.765028    3.155419
 132 H   1.0000    0     1.008   -0.704817   12.990928   -4.380897
 133 O   8.0000    0    15.999   -2.114469   13.787211   -5.323553
 134 H   1.0000    0     1.008   -3.607718   13.548354   -4.259193
 135 H   1.0000    0     1.008   -2.099516    8.155499    1.088758
 136 O   8.0000    0    15.999   -1.394308    8.272834   -0.604304
 137 H   1.0000    0     1.008   -2.729621    7.819668   -1.800561
 138 H   1.0000    0     1.008   -8.333906    5.199455    6.622946
 139 O   8.0000    0    15.999   -8.332033    5.517976    8.446207
 140 H   1.0000    0     1.008   -8.491199    3.848070    9.216291
 141 H   1.0000    0     1.008    3.810997   -6.777803    8.000042
 142 O   8.0000    0    15.999    3.688003   -7.673029    9.610592
 143 H   1.0000    0     1.008    4.647504   -6.662672   10.804628
 144 H   1.0000    0     1.008    8.848747   -6.039081    1.568837
 145 O   8.0000    0    15.999    8.546243   -5.892325   -0.257383
 146 H   1.0000    0     1.008    6.924378   -4.988346   -0.414081
 147 H   1.0000    0     1.008   -5.147501   -1.392131   -2.568756
 148 O   8.0000    0    15.999   -5.769181   -0.886495   -0.916300
 149 H   1.0000    0     1.008   -7.278486    0.112459   -1.306334
 150 H   1.0000    0     1.008   -3.053342   -1.405777   -8.763633
 151 O   8.0000    0    15.999   -2.097978   -0.997065  -10.283754
 152 H   1.0000    0     1.008   -0.753925    0.127464   -9.744974
 153 H   1.0000    0     1.008    3.388906   -3.221541   -6.396424
 154 O   8.0000    0    15.999    3.562984   -1.812977   -5.215421
 155 H   1.0000    0     1.008    2.096290   -0.719723   -5.463276
 156 H   1.0000    0     1.008    6.910551   -5.906326    4.802456
 157 O   8.0000    0    15.999    8.722405   -6.340396    4.664182
 158 H   1.0000    0     1.008    8.824216   -8.155353    4.900425
 159 H   1.0000    0     1.008    6.456293  -11.575393    5.873628
 160 O   8.0000    0    15.999    7.129336  -11.193281    4.173462
 161 H   1.0000    0     1.008    5.736851  -10.536771    3.148204
 162 H   1.0000    0     1.008   -6.315467    3.074923   -7.903492
 163 O   8.0000    0    15.999   -7.912735    2.184629   -7.544337
 164 H   1.0000    0     1.008   -8.324476    2.460994   -5.736710
 165 H   1.0000    0     1.008   -9.598898    7.858889    0.126268
 166 O   8.0000    0    15.999  -10.429786    6.223641   -0.074013
 167 H   1.0000    0     1.008  -12.187604    6.453086   -0.605223
 168 H   1.0000    0     1.008   12.720947   -2.232660   -2.583830
 169 O   8.0000    0    15.999   11.261258   -1.950313   -1.541348
 170 H   1.0000    0     1.008   10.468017   -3.590121   -1.171417
 171 H   1.0000    0     1.008    8.673168   -5.979194   -4.685703
 172 O   8.0000    0    15.999    7.033547   -5.652566   -5.471560
 173 H   1.0000    0     1.008    7.040012   -6.819098   -6.902984
 174 H   1.0000    0     1.008    8.367653   -4.353041   10.609266
 175 O   8.0000    0    15.999    7.717494   -5.235139   12.105803
 176 H   1.0000    0     1.008    8.349579   -6.945524   11.948787
 177 H   1.0000    0     1.008   -1.420330   11.971825    9.602048
 178 O   8.0000    0    15.999   -2.547479   13.059149   10.620270
 179 H   1.0000    0     1.008   -2.570598   14.718206    9.789167
 180 H   1.0000    0     1.008    8.876703   -0.251865   -2.777724
 181 O   8.0000    0    15.999    7.427465    0.775287   -3.272862
 182 H   1.0000    0     1.008    6.118474   -0.357417   -3.899533
 183 H   1.0000    0     1.008   -1.394351    8.574931   -7.624472
 184 O   8.0000    0    15.999   -2.872915    9.602721   -8.015546
 185 H   1.0000    0     1.008   -2.584913   11.239139   -7.214793
 186 H   1.0000    0     1.008    1.251677    6.072952   -5.021565
 187 O   8.0000    0    15.999    1.265663    6.787575   -6.737221
 188 H   1.0000    0     1.008    1.355544    5.346880   -7.846260
 189 H   1.0000    0     1.008  -10.189931   -9.797620    3.358571
 190 O   8.0000    0    15.999   -8.875275  -10.919448    2.680658
 191 H   1.0000    0     1.008   -7.285289  -10.139549    3.197256
 192 H   1.0000    0     1.008   14.889511   -3.187099   -7.632577
 193 O   8.0000    0    15.999   14.402132   -2.597568   -5.931548
 194 H   1.0000    0     1.008   13.484218   -1.001347   -6.225005
 195 H   1.0000    0     1.008    6.984347   -9.564448  -10.022278
 196 O   8.0000    0    15.999    8.424945   -8.861714   -9.110345
 197 H   1.0000    0     1.008    9.150096  -10.208542   -8.082156
 198 H   1.0000    0     1.008   -7.159186    0.036026    9.312276
 199 O   8.0000    0    15.999   -8.294422    0.912086   10.508234
 200 H   1.0000    0     1.008   -9.543181   -0.331197   11.057759
 201 H   1.0000    0     1.008    6.531132  -11.225183   -1.010059
 202 O   8.0000    0    15.999    8.181106  -10.758411   -1.608527
 203 H   1.0000    0     1.008    8.327110   -8.940546   -1.333939
 204 H   1.0000    0     1.008    9.448614   -0.620854   -7.869538
 205 O   8.0000    0    15.999    8.435004   -1.962180   -8.608867
 206 H   1.0000    0     1.008    7.817963   -3.066965   -7.254766
 207 H   1.0000    0     1.008   -2.213914    2.997913   -7.445026
 208 O   8.0000    0    15.999   -3.443344    4.171149   -8.172856
 209 H   1.0000    0     1.008   -2.765350    4.801564   -9.770090
 210 H   1.0000    0     1.008    9.216432  -11.939288   -4.403173
 211 O   8.0000    0    15.999    9.845409  -12.550675   -6.039846
 212 H   1.0000    0     1.008   11.389859  -13.462269   -5.688346
 213 H   1.0000    0     1.008   16.504318   -9.621053   -5.535939
 214 O   8.0000    0    15.999   15.196771  -10.410702   -4.482481
 215 H   1.0000    0     1.008   15.260094  -12.219521   -4.678822
 216 H   1.0000    0     1.008    4.423928    8.923132    0.861186
 217 O   8.0000    0    15.999    3.328358    8.887690    2.317774
 218 H   1.0000    0     1.008    2.651305    7.149065    2.461268
 219 H   1.0000    0     1.008   -8.357146   -4.972763    7.973510
 220 O   8.0000    0    15.999  -10.045835   -4.329599    7.589923
 221 H   1.0000    0     1.008   -9.784928   -2.850554    6.506964
 222 H   1.0000    0     1.008  -11.059265   -6.019290    2.464919
 223 O   8.0000    0    15.999  -11.937746   -7.072669    3.724246
 224 H   1.0000    0     1.008  -11.579790   -6.254436    5.333852
 225 H   1.0000    0     1.008    3.184498    6.538874   12.971241
 226 O   8.0000    0    15.999    2.008467    7.515724   11.963550
 227 H   1.0000    0     1.008    0.529040    7.805177   13.043940
 228 H   1.0000    0     1.008    9.438874   -4.111761    6.819793
 229 O   8.0000    0    15.999    9.478235   -2.756740    8.077279
 230 H   1.0000    0     1.008    7.945452   -1.703390    7.782374
 231 H   1.0000    0     1.008    4.497586  -10.549419    9.116243
 232 O   8.0000    0    15.999    5.214023  -12.219461    8.622040
 233 H   1.0000    0     1.008    3.805190  -13.316488    8.290814
 234 H   1.0000    0     1.008    4.255960   -8.506593  -12.856861
 235 O   8.0000    0    15.999    3.936294   -9.430654  -11.316256
 236 H   1.0000    0     1.008    3.437200   -8.126442  -10.076095
 237 H   1.0000    0     1.008   12.156856   -7.756003   -0.971011
 238 O   8.0000    0    15.999   13.578956   -8.520484   -0.096000
 239 H   1.0000    0     1.008   14.537450   -9.318149   -1.458986
 240 H   1.0000    0     1.008   -3.261359    8.473787   14.556577
 241 O   8.0000    0    15.999   -1.562847    8.656000   15.285749
 242 H   1.0000    0     1.008   -1.218947   10.468127   15.335296
 243 H   1.0000    0     1.008   -9.661733   10.799479  -10.570835
 244 O   8.0000    0    15.999   -8.515847    9.354864  -10.611073
 245 H   1.0000    0     1.008   -7.083699    9.760375  -11.679222
 246 H   1.0000    0     1.008    6.196516   -4.745469  -15.960748
 247 O   8.0000    0    15.999    6.029298   -5.751429  -14.446251
 248 H   1.0000    0     1.008    7.686482   -5.710652  -13.637065
 249 H   1.0000    0     1.008   -1.231901   16.700715   -4.287004
 250 O   8.0000    0    15.999   -0.998611   18.264199   -3.303529
 251 H   1.0000    0     1.008    0.441378   17.931507   -2.213882
 252 H   1.0000    0     1.008    3.894446   -1.735638    9.836913
 253 O   8.0000    0    15.999    2.809798   -2.729796   10.944464
 254 H   1.0000    0     1.008    2.987982   -2.081131   12.641372
 255 H   1.0000    0     1.008    9.832651   -3.807271  -10.771925
 256 O   8.0000    0    15.999   10.486060   -5.254293  -11.760081
 257 H   1.0000    0     1.008    9.966094   -6.748327  -10.785217
 258 H   1.0000    0     1.008   10.743492   -9.872286    8.831748
 259 O   8.0000    0    15.999    9.756031   -9.713207   10.393823
 260 H   1.0000    0     1.008    8.391803  -10.906280   10.229811
 261 H   1.0000    0     1.008   -7.518124    2.162211   13.232212
 262 O   8.0000    0    15.999   -7.154787    3.058114   14.828384
 263 H   1.0000    0     1.008   -8.809705    3.787941   15.321990
 264 H   1.0000    0     1.008   -3.483189   18.186738   -1.389274
 265 O   8.0000    0    15.999   -5.109874   17.947655   -0.493872
 266 H   1.0000    0     1.008   -6.263161   19.138149   -1.224886
 267 H   1.0000    0     1.008  -11.233757    8.895948   -5.552675
 268 O   8.0000    0    15.999  -12.951378    8.672114   -6.202650
 269 H   1.0000    0     1.008  -12.781325    7.348055   -7.485283
 270 H   1.0000    0     1.008    0.159877  -13.336168   -2.194662
 271 O   8.0000    0    15.999    1.035744  -14.162037   -0.782224
 272 H   1.0000    0     1.008   -0.248301  -14.532383    0.442568
 273 H   1.0000    0     1.008  -14.428456    7.198761   -3.732409
 274 O   8.0000    0    15.999  -14.924823    6.087035   -2.336478
 275 H   1.0000    0     1.008  -14.655051    4.371322   -2.980907
 276 H   1.0000    0     1.008    7.497082   -1.707523   13.192329
 277 O   8.0000    0    15.999    7.514936    0.114481   13.177986
 278 H   1.0000    0     1.008    9.050994    0.662224   12.364232
 279 H   1.0000    0     1.008    4.275364   10.963339   -2.219085
 280 O   8.0000    0    15.999    6.042454   10.407814   -2.003261
 281 H   1.0000    0     1.008    6.375944    9.389622   -3.503964
 282 H   1.0000    0     1.008   12.361215  -11.211403    1.244566
 283 O   8.0000    0    15.999   11.662859  -12.603751    2.250681
 284 H   1.0000    0     1.008    9.953845  -12.079260    2.679216
 285 H   1.0000    0     1.008   -7.311677    8.930950   14.706287
 286 O   8.0000    0    15.999   -6.241648    8.057346   13.459557
 287 H   1.0000    0     1.008   -6.608756    6.274579   13.665585
 288 H   1.0000    0     1.008   10.867836  -15.017758    0.228292
 289 O   8.0000    0    15.999   10.322739  -16.313787   -0.978440
 290 H   1.0000    0     1.008    8.756989  -15.695725   -1.723432
 291 H   1.0000    0     1.008   -1.059998    3.845903   14.534434
 292 O   8.0000    0    15.999   -2.256443    3.727133   13.144805
 293 H   1.0000    0     1.008   -3.898031    3.460187   13.893520
 294 H   1.0000    0     1.008  -12.065438   -0.206670    1.991082
 295 O   8.0000    0    15.999  -12.673099   -0.365411    0.266521
 296 H   1.0000    0     1.008  -14.410991   -0.870376    0.304257
 297 H   1.0000    0     1.008  -10.164053   -5.765755   -1.135355
 298 O   8.0000    0    15.999   -9.685432   -4.441170    0.048313
 299 H   1.0000    0     1.008  -10.761531   -2.978199   -0.300041
 300 H   1.0000    0     1.008    8.165182   10.541484    0.615898
 301 O   8.0000    0    15.999    8.795522   10.728058    2.327113
 302 H   1.0000    0     1.008    7.483907   11.692473    3.182849
 303 H   1.0000    0     1.008  -17.101428   -3.259789   -4.275328
 304 O   8.0000    0    15.999  -16.059528   -2.886388   -2.793953
 305 H   1.0000    0     1.008  -16.304661   -4.276739   -1.587351
 306 H   1.0000    0     1.008  -10.435769    6.600016  -10.448154
 307 O   8.0000    0    15.999  -11.413840    5.255096   -9.667743
 308 H   1.0000    0     1.008  -10.154366    4.148202   -8.887074
 309 H   1.0000    0     1.008    6.006508   -1.656591  -10.697963
 310 O   8.0000    0    15.999    4.388617   -1.880616  -11.578067
 311 H   1.0000    0     1.008    4.550135   -3.482973  -12.476945
 312 H   1.0000    0     1.008   15.329850   -2.537963  -11.402744
 313 O   8.0000    0    15.999   15.343231   -4.171809  -10.542315
 314 H   1.0000    0     1.008   13.724862   -4.925490  -11.018050
 315 H   1.0000    0     1.008   14.401457    1.887103  -11.926498
 316 O   8.0000    0    15.999   14.043052    0.285488  -12.709691
 317 H   1.0000    0     1.008   12.188541    0.192973  -12.779333
 318 H   1.0000    0     1.008  -14.869168   -6.949895    1.734370
 319 O   8.0000    0    15.999  -16.149038   -6.745351    0.438959
 320 H   1.0000    0     1.008  -15.966319   -8.181851   -0.695831
 321 H   1.0000    0     1.008   -4.537824   16.522974    2.459601
 322 O   8.0000    0    15.999   -4.254758   15.407886    3.880751
 323 H   1.0000    0     1.008   -2.799992   14.362193    3.458700
 324 H   1.0000    0     1.008   -8.392327   12.171794    6.615878
 325 O   8.0000    0    15.999   -8.712773   12.979159    4.998203
 326 H   1.0000    0     1.008   -7.269227   14.085881    4.736695
 327 H   1.0000    0     1.008    6.430330    6.528172   -6.757322
 328 O   8.0000    0    15.999    6.142256    8.359746   -6.577530
 329 H   1.0000    0     1.008    4.319260    8.484392   -6.781821
 330 H   1.0000    0     1.008  -11.563882   -2.995545   -6.522826
 331 O   8.0000    0    15.999  -11.729307   -4.104778   -5.052712
 332 H   1.0000    0     1.008  -13.202719   -3.517587   -4.081608
 333 H   1.0000    0     1.008   12.215919    1.966109    8.953846
 334 O   8.0000    0    15.999   11.471675    2.982717   10.283599
 335 H   1.0000    0     1.008   11.828943    4.719353    9.736759
 336 H   1.0000    0     1.008    2.573731    3.280591  -11.007058
 337 O   8.0000    0    15.999    2.203496    2.152237   -9.584037
 338 H   1.0000    0     1.008    2.890846    0.522020  -10.096217
 339 H   1.0000    0     1.008   -4.710528    5.584025   19.809901
 340 O   8.0000    0    15.999   -4.311344    3.869297   19.290642
 341 H   1.0000    0     1.008   -5.440801    3.495659   17.905677
 342 H   1.0000    0     1.008   14.405252   -0.955674    5.819956
 343 O   8.0000    0    15.999   12.988719    0.132914    6.140191
 344 H   1.0000    0     1.008   11.679388   -1.001453    6.855142
 345 H   1.0000    0     1.008  -10.716198  -15.194904   -1.363116
 346 O   8.0000    0    15.999   -9.329311  -15.327176   -0.140675
 347 H   1.0000    0     1.008   -9.335207  -13.784709    0.848651
 348 H   1.0000    0     1.008   -9.786296   -0.187863   -8.923910
 349 O   8.0000    0    15.999  -10.954536   -1.530969   -9.379554
 350 H   1.0000    0     1.008  -12.535884   -0.690704   -9.753780
 351 H   1.0000    0     1.008    3.569846   -0.344488  -14.211005
 352 O   8.0000    0    15.999    3.189924    0.551214  -15.803623
 353 H   1.0000    0     1.008    4.277635   -0.214250  -17.039884
 354 H   1.0000    0     1.008    9.203484   -2.602801  -17.594214
 355 O   8.0000    0    15.999    7.456028   -2.166579  -18.126676
 356 H   1.0000    0     1.008    7.416784   -2.388963  -19.920191
 357 H   1.0000    0     1.008   14.279629   -4.876697    7.923499
 358 O   8.0000    0    15.999   14.557473   -4.942000    6.110301
 359 H   1.0000    0     1.008   13.624111   -6.434890    5.593801
 360 H   1.0000    0     1.008   12.680535  -11.151803    5.049142
 361 O   8.0000    0    15.999   12.797826   -9.878194    6.376350
 362 H   1.0000    0     1.008   14.452694  -10.041908    7.166110
 363 H   1.0000    0     1.008   -3.430737   16.913563    6.625512
 364 O   8.0000    0    15.999   -2.962648   17.485895    8.324261
 365 H   1.0000    0     1.008   -4.566627   17.736803    9.184832
 366 H   1.0000    0     1.008  -13.964830    3.005035   -9.931783
 367 O   8.0000    0    15.999  -15.052991    1.598928   -9.471710
 368 H   1.0000    0     1.008  -16.755765    2.358170   -9.326853
 369 H   1.0000    0     1.008   13.085662   -2.024120  -15.891000
 370 O   8.0000    0    15.999   11.984239   -3.384388  -16.391689
 371 H   1.0000    0     1.008   11.552519   -4.237125  -14.821317
 372 H   1.0000    0     1.008   -3.158101   11.830831  -13.262587
 373 O   8.0000    0    15.999   -3.912455   10.271988  -12.747106
 374 H   1.0000    0     1.008   -3.442629   10.021590  -10.926752
 375 H   1.0000    0     1.008   -0.003252    6.240838   17.052392
 376 O   8.0000    0    15.999    0.366775    4.501430   17.531501
 377 H   1.0000    0     1.008   -1.142570    4.002517   18.487544
 378 H   1.0000    0     1.008   12.757003   -5.248042   -5.126253
 379 O   8.0000    0    15.999   11.752885   -6.654334   -4.484144
 380 H   1.0000    0     1.008   12.636750   -8.186781   -4.952277
 381 H   1.0000    0     1.008   -7.715442   -5.770005   -9.350327
 382 O   8.0000    0    15.999   -8.038553   -5.575868  -11.172031
 383 H   1.0000    0     1.008   -9.045263   -4.058516  -11.284201
 384 H   1.0000    0     1.008    3.735284    4.108189   15.995770
 385 O   8.0000    0    15.999    4.989939    4.321303   14.692005
 386 H   1.0000    0     1.008    5.786504    2.676425   14.471857
 387 H   1.0000    0     1.008  -13.069416   -9.797629   -2.665784
 388 O   8.0000    0    15.999  -14.801386  -10.301611   -3.132820
 389 H   1.0000    0     1.008  -15.054736   -9.540063   -4.797489
 390 H   1.0000    0     1.008   -7.231011    9.936125   10.770827
 391 O   8.0000    0    15.999   -7.167410   11.389551    9.656153
 392 H   1.0000    0     1.008   -5.402015   11.944120    9.835573
 393 H   1.0000    0     1.008  -14.906468    0.202082   -3.729042
 394 O   8.0000    0    15.999  -13.976840    1.566744   -4.509841
 395 H   1.0000    0     1.008  -14.409880    1.551981   -6.310790
 396 H   1.0000    0     1.008   11.025278    0.243542    0.772860
 397 O   8.0000    0    15.999   10.606562    1.605441    1.948264
 398 H   1.0000    0     1.008   11.570289    1.233436    3.484069
 399 H   1.0000    0     1.008  -11.749006    6.260935   13.974100
 400 O   8.0000    0    15.999  -11.508736    5.278719   15.538417
 401 H   1.0000    0     1.008  -12.644757    3.841692   15.369267
 402 H   1.0000    0     1.008    4.282514  -15.248663   -1.625008
 403 O   8.0000    0    15.999    5.561846  -15.223258   -2.940529
 404 H   1.0000    0     1.008    5.135835  -16.570264   -4.101830
 405 H   1.0000    0     1.008   -5.192833   -7.449937  -11.743176
 406 O   8.0000    0    15.999   -3.778978   -8.525464  -11.291786
 407 H   1.0000    0     1.008   -3.253823   -7.973401   -9.597908
 408 H   1.0000    0     1.008  -10.666663    7.117107   10.032271
 409 O   8.0000    0    15.999  -11.893341    7.865713   11.198976
 410 H   1.0000    0     1.008  -11.581701    9.649320   11.177496
 411 H   1.0000    0     1.008   -1.944120  -13.419461   -6.010888
 412 O   8.0000    0    15.999   -1.051748  -12.155977   -5.009141
 413 H   1.0000    0     1.008    0.664386  -12.026945   -5.727223
 414 H   1.0000    0     1.008    8.393937    3.797805    9.692067
 415 O   8.0000    0    15.999    6.614964    4.252292    9.465308
 416 H   1.0000    0     1.008    5.888555    4.281277   11.131789
 417 H   1.0000    0     1.008    7.765797    8.785231   11.915113
 418 O   8.0000    0    15.999    7.920317   10.166721   10.749367
 419 H   1.0000    0     1.008    6.847591    9.715658    9.291621
 420 H   1.0000    0     1.008    5.224095    6.830547    7.417001
 421 O   8.0000    0    15.999    4.890158    8.607850    7.105990
 422 H   1.0000    0     1.008    4.665345    8.797270    5.279955
 423 H   1.0000    0     1.008   17.746138    0.393441   -2.027319
 424 O   8.0000    0    15.999   16.222955    0.701623   -1.094756
 425 H   1.0000    0     1.008   15.888768   -0.846820   -0.165351
 426 H   1.0000    0     1.008   -3.971709   10.040570   20.133331
 427 O   8.0000    0    15.999   -5.337577    8.853584   20.568216
 428 H   1.0000    0     1.008   -5.750446    9.186497   22.297992
 429 H   1.0000    0     1.008   15.054131   -5.693643    0.605298
 430 O   8.0000    0    15.999   15.851319   -4.095167    1.090217
 431 H   1.0000    0     1.008   15.726666   -4.088759    2.908706
 432 H   1.0000    0     1.008   10.148733    6.915931    6.666823
 433 O   8.0000    0    15.999   11.389003    7.414032    7.926957
 434 H   1.0000    0     1.008   10.610602    8.770444    8.876981
 435 H   1.0000    0     1.008   -7.955405    9.484972   18.494944
 436 O   8.0000    0    15.999   -9.151076    9.773157   17.130490
 437 H   1.0000    0     1.008  -10.308877    8.359772   17.123855
 438 H   1.0000    0     1.008  -13.289754   -6.459188   -6.459708
 439 O   8.0000    0    15.999  -14.447087   -7.616460   -7.350600
 440 H   1.0000    0     1.008  -13.394745   -8.431920   -8.624143
 441 H   1.0000    0     1.008    0.052221   11.563453   20.364031
 442 O   8.0000    0    15.999   -1.580879   12.191956   19.897238
 443 H   1.0000    0     1.008   -1.360752   13.008049   18.261550
 444 H   1.0000    0     1.008    4.892104    2.844673   -7.761011
 445 O   8.0000    0    15.999    6.552225    3.509291   -7.308453
 446 H   1.0000    0     1.008    7.156678    2.533195   -5.853912
 447 H   1.0000    0     1.008  -13.187665   -0.405611   13.630082
 448 O   8.0000    0    15.999  -14.147193    1.065874   14.161543
 449 H   1.0000    0     1.008  -15.324112    1.415868   12.831259
 450 H   1.0000    0     1.008   -5.207760  -18.637668   -1.609695
 451 O   8.0000    0    15.999   -5.087834  -16.857378   -1.906681
 452 H   1.0000    0     1.008   -6.798717  -16.165496   -1.451650
 453 H   1.0000    0     1.008  -19.023958    5.860275   -9.263725
 454 O   8.0000    0    15.999  -19.245954    4.126406   -8.733560
 455 H   1.0000    0     1.008  -19.654788    4.286288   -6.938889
 456 H   1.0000    0     1.008   -3.922756   -5.711448    8.700673
 457 O   8.0000    0    15.999   -5.577655   -6.540760    8.829842
 458 H   1.0000    0     1.008   -5.566340   -7.707082    7.399882
 459 H   1.0000    0     1.008   -0.361274  -15.079924    4.664286
 460 O   8.0000    0    15.999    1.200173  -14.684253    5.511849
 461 H   1.0000    0     1.008    2.557686  -15.243703    4.403113
 462 H   1.0000    0     1.008   12.657535   -4.510587   12.068122
 463 O   8.0000    0    15.999   13.505313   -5.851624   11.190321
 464 H   1.0000    0     1.008   12.313270   -7.238781   11.115520
 465 H   1.0000    0     1.008   -9.977767   -3.780911   13.104574
 466 O   8.0000    0    15.999  -11.254555   -2.837205   12.190795
 467 H   1.0000    0     1.008  -11.224437   -3.547432   10.472021
 468 H   1.0000    0     1.008    1.584201    5.762843  -13.444464
 469 O   8.0000    0    15.999    3.317237    5.135274  -13.550002
 470 H   1.0000    0     1.008    3.290350    3.724845  -14.735444
 471 H   1.0000    0     1.008   -7.464683   16.551261   12.624399
 472 O   8.0000    0    15.999   -7.460973   16.549475   10.815231
 473 H   1.0000    0     1.008   -7.699358   14.797586   10.307041
 474 H   1.0000    0     1.008   -3.875044   19.516470   -5.152694
 475 O   8.0000    0    15.999   -5.578521   19.861880   -5.722888
 476 H   1.0000    0     1.008   -5.441680   21.062041   -7.068033
 477 H   1.0000    0     1.008   17.766255   -7.695498    7.626780
 478 O   8.0000    0    15.999   17.235550   -8.977917    8.801313
 479 H   1.0000    0     1.008   16.424970   -8.086185   10.170941
 480 H   1.0000    0     1.008   -1.403454  -11.306018  -11.069838
 481 O   8.0000    0    15.999   -0.076781  -12.372130  -10.426970
 482 H   1.0000    0     1.008    1.503623  -11.506202  -10.844556
 483 H   1.0000    0     1.008    3.461160   15.645268    1.271561
 484 O   8.0000    0    15.999    2.888779   16.256267   -0.386052
 485 H   1.0000    0     1.008    4.428539   16.327995   -1.388202
 486 H   1.0000    0     1.008    6.614370    5.561048  -12.588779
 487 O   8.0000    0    15.999    8.177576    5.010178  -11.815675
 488 H   1.0000    0     1.008    7.713314    4.490428  -10.099222
 489 H   1.0000    0     1.008    7.064709   13.472496   -2.310593
 490 O   8.0000    0    15.999    7.455372   15.240908   -2.711438
 491 H   1.0000    0     1.008    8.153509   15.136449   -4.399521
 492 H   1.0000    0     1.008    8.303430    0.011386  -14.958123
 493 O   8.0000    0    15.999    9.015186    0.285060  -13.314285
 494 H   1.0000    0     1.008    8.674117    2.046025  -12.852318
 495 H   1.0000    0     1.008   11.394569    3.653425   -0.898699
 496 O   8.0000    0    15.999   12.463282    4.019523   -2.337642
 497 H   1.0000    0     1.008   14.020473    3.110716   -1.972506
 498 H   1.0000    0     1.008   12.607474  -15.931228   -3.066801
 499 O   8.0000    0    15.999   13.810111  -15.531958   -4.457499
 500 H   1.0000    0     1.008   14.501197  -17.108248   -5.004577
 501 H   1.0000    0     1.008   -9.789059  -10.815902  -10.127615
 502 O   8.0000    0    15.999  -11.011797   -9.632072  -10.824036
 503 H   1.0000    0     1.008   -9.987609   -8.135664  -11.229860
 504 H   1.0000    0     1.008    1.295199   13.546458   14.376577
 505 O   8.0000    0    15.999   -0.408578   13.599216   15.055633
 506 H   1.0000    0     1.008   -1.457975   13.630736   13.510693
 507 H   1.0000    0     1.008  -16.823710   -5.303749   -7.783686
 508 O   8.0000    0    15.999  -17.805723   -3.779889   -7.458267
 509 H   1.0000    0     1.008  -17.266879   -2.514840   -8.640956
 510 H   1.0000    0     1.008   -4.572306  -11.289963   -4.072477
 511 O   8.0000    0    15.999   -6.230489  -10.746663   -4.582794
 512 H   1.0000    0     1.008   -6.578174  -11.456225   -6.256934
 513 H   1.0000    0     1.008   -5.659178  -11.114250  -10.258864
 514 O   8.0000    0    15.999   -6.799732  -12.250448   -9.351433
 515 H   1.0000    0     1.008   -5.908524  -13.815705   -9.056751
 516 H   1.0000    0     1.008   -2.623044    7.079387  -13.194584
 517 O   8.0000    0    15.999   -1.604909    5.649147  -12.682974
 518 H   1.0000    0     1.008   -2.052210    4.167751  -13.725895
 519 H   1.0000    0     1.008   -0.387454    0.827167  -15.535106
 520 O   8.0000    0    15.999   -2.079496    1.273844  -14.997146
 521 H   1.0000    0     1.008   -2.411614    0.280913  -13.492168
 522 H   1.0000    0     1.008  -19.693685    7.703984   -5.168790
 523 O   8.0000    0    15.999  -19.821470    6.229335   -4.099491
 524 H   1.0000    0     1.008  -18.255393    6.178416   -3.135868
 525 H   1.0000    0     1.008    8.657236    7.709041    3.256280
 526 O   8.0000    0    15.999    8.261265    5.968180    3.779377
 527 H   1.0000    0     1.008    9.613177    4.879275    3.246759
 528 H   1.0000    0     1.008   12.254785    2.652830   -7.976020
 529 O   8.0000    0    15.999   11.680140    1.472374   -6.666349
 530 H   1.0000    0     1.008   11.739765    2.406198   -5.070439
 531 H   1.0000    0     1.008   18.192907   -4.212850   -1.767676
 532 O   8.0000    0    15.999   18.716526   -3.805037   -3.467099
 533 H   1.0000    0     1.008   17.204809   -3.162625   -4.304598
 534 H   1.0000    0     1.008   18.827219   -6.276092   -5.869964
 535 O   8.0000    0    15.999   18.321144   -7.505875   -7.147075
 536 H   1.0000    0     1.008   17.578711   -6.543982   -8.507152
 537 H   1.0000    0     1.008  -14.567183  -16.172720   -3.186152
 538 O   8.0000    0    15.999  -13.176484  -15.045591   -3.431276
 539 H   1.0000    0     1.008  -13.891228  -13.322284   -3.400999
 540 H   1.0000    0     1.008    7.870910   11.506633   -7.210233
 541 O   8.0000    0    15.999    9.121426   12.830265   -7.046872
 542 H   1.0000    0     1.008   10.700792   11.970410   -6.788637
 543 H   1.0000    0     1.008    0.162637  -15.411561   -9.889534
 544 O   8.0000    0    15.999    0.204514  -17.268918   -9.639635
 545 H   1.0000    0     1.008    0.478911  -17.957005  -11.290046
 546 H   1.0000    0     1.008   -4.432239  -16.364233   -5.172341
 547 O   8.0000    0    15.999   -3.995406  -15.857176   -6.889403
 548 H   1.0000    0     1.008   -2.776692  -17.024554   -7.576710
 549 H   1.0000    0     1.008    4.098423  -20.421206   -6.647180
 550 O   8.0000    0    15.999    4.011558  -18.617529   -6.595452
 551 H   1.0000    0     1.008    2.529128  -18.102815   -7.591419
 552 H   1.0000    0     1.008   12.920485    6.305491   -8.641372
 553 O   8.0000    0    15.999   13.029100    5.025438   -9.967325
 554 H   1.0000    0     1.008   11.530372    5.280190  -10.989368
 555 H   1.0000    0     1.008   -6.753229   -7.034613   14.570127
 556 O   8.0000    0    15.999   -6.968477   -5.544776   13.569934
 557 H   1.0000    0     1.008   -6.492812   -5.994472   11.834370
 558 H   1.0000    0     1.008   -1.212900   -6.320091  -12.731835
 559 O   8.0000    0    15.999   -0.021853   -4.938446  -12.735284
 560 H   1.0000    0     1.008   -0.932771   -3.473084  -12.091284
 561 H   1.0000    0     1.008    1.203499    0.858714   16.532947
[...]


-------------------------------------------------------------------------------
                          DFT DISPERSION CORRECTION                            
                                                                               
                              DFTD3 V3.1  Rev 1                                
                          USING Becke-Johnson damping                          
-------------------------------------------------------------------------------
The B97-3c composite method is recognized
Using three-body term ABC
Active option DFTDOPT                   ...         4   

molecular C6(AA) [au] = 178.130934 


            DFT-D V3
 parameters
 s6 scaling factor         :     1.0000 
 a1 scaling factor         :     0.3700 
 s8 scaling factor         :     1.5000 
 a2 scaling factor         :     4.1000 
 Damping factor alpha9(ATM):    16.0000 
 ad hoc parameters k1-k3   :    16.0000     1.3333    -4.0000 

 Edisp/kcal,au: -1.995808020064  -0.003180522191 
 E6   /kcal   :  -1.147452443 
 E8   /kcal   :  -0.848565136 
 E6(ABC)      :   0.000209559 
 % E8         :  42.517372780 
 % E6(ABC)    :  -0.010499954 

-------------------------   ----------------
Dispersion correction           -0.003180522
-------------------------   ----------------

------------------   -----------------
SRB correction            -0.010324946
------------------   -----------------

-------------------------   --------------------
FINAL SINGLE POINT ENERGY      -152.856720987310
-------------------------   --------------------



--------------------------------------   --------------------
FINAL SINGLE POINT ENERGY (QM/QM2)    -1161.019979324860
--------------------------------------   --------------------

                                *** OPTIMIZATION RUN DONE ***

                            ***************************************
                            *     ORCA property calculations      *
                            ***************************************

                                    ---------------------
                                    Active property flags
                                    ---------------------
   (+) Dipole Moment


------------------------------------------------------------------------------
                       ORCA ELECTRIC PROPERTIES CALCULATION
------------------------------------------------------------------------------

Dipole Moment Calculation                       ... on
Quadrupole Moment Calculation                   ... off
Polarizability Calculation                      ... off
GBWName                                         ... cluster_opt.gbw
Electron density                                ... cluster_opt.scfp
The origin for moment calculation is the CENTER OF MASS  = (-12.609443, -8.601832 -9.078782)

-------------
DIPOLE MOMENT
-------------
                                X             Y             Z
Electronic contribution:     -0.01928      -0.20909      -0.31183
Nuclear contribution   :      1.97785       0.27513      -0.07583
                        -----------------------------------------
Total Dipole Moment    :      1.95858       0.06604      -0.38767
                        -----------------------------------------
Magnitude (a.u.)       :      1.99767
Magnitude (Debye)      :      5.07766



--------------------
Rotational spectrum 
--------------------
 
Rotational constants in cm-1:     6.663722     0.242112     0.239754 
Rotational constants in MHz : 199773.366355  7258.332427  7187.653007 

 Dipole components along the rotational axes: 
x,y,z [a.u.] :     1.510975     1.122329     0.669326 
x,y,z [Debye]:     3.840594     2.852734     1.701291 

 

----------------------------------------------------------------------------
                           ORCA NUMERICAL FREQUENCIES
                              (24-process run)
----------------------------------------------------------------------------

Number of atoms                ... 6
Central differences            ... used
Number of displacements        ... 36
Numerical increment            ... 5.000e-03 bohr
IR-spectrum generation         ... on
Raman-spectrum generation      ... off
Surface Crossing Hessian       ... off

The output will be reduced. Please look at the following files:
SCF program output             ... >cluster_opt.lastscf
Integral program output        ... >cluster_opt.lastint
Gradient program output        ... >cluster_opt.lastgrad
Dipole moment program output   ... >cluster_opt.lastmom
AutoCI program output          ... >cluster_opt.lastautoci

	<< Calculating on displaced geometry  10 (of  36) >>
	<< Calculating on displaced geometry  21 (of  36) >>
	<< Calculating on displaced geometry  15 (of  36) >>
	<< Calculating on displaced geometry   2 (of  36) >>
	<< Calculating on displaced geometry   3 (of  36) >>
	<< Calculating on displaced geometry   1 (of  36) >>
	<< Calculating on displaced geometry   9 (of  36) >>
	<< Calculating on displaced geometry  19 (of  36) >>
	<< Calculating on displaced geometry  17 (of  36) >>
	<< Calculating on displaced geometry  12 (of  36) >>
	<< Calculating on displaced geometry  23 (of  36) >>
	<< Calculating on displaced geometry   4 (of  36) >>
	<< Calculating on displaced geometry  18 (of  36) >>
	<< Calculating on displaced geometry  14 (of  36) >>
	<< Calculating on displaced geometry   7 (of  36) >>
	<< Calculating on displaced geometry   8 (of  36) >>
	<< Calculating on displaced geometry  13 (of  36) >>
	<< Calculating on displaced geometry  16 (of  36) >>
	<< Calculating on displaced geometry  24 (of  36) >>
	<< Calculating on displaced geometry  11 (of  36) >>
	<< Calculating on displaced geometry  20 (of  36) >>
	<< Calculating on displaced geometry   6 (of  36) >>
	<< Calculating on displaced geometry   5 (of  36) >>
	<< Calculating on displaced geometry  22 (of  36) >>
	<< Calculating on displaced geometry  25 (of  36) >>
	<< Calculating on displaced geometry  26 (of  36) >>
	<< Calculating on displaced geometry  27 (of  36) >>
	<< Calculating on displaced geometry  28 (of  36) >>
	<< Calculating on displaced geometry  29 (of  36) >>
	<< Calculating on displaced geometry  30 (of  36) >>
	<< Calculating on displaced geometry  32 (of  36) >>
	<< Calculating on displaced geometry  31 (of  36) >>
	<< Calculating on displaced geometry  33 (of  36) >>
	<< Calculating on displaced geometry  34 (of  36) >>
	<< Calculating on displaced geometry  35 (of  36) >>
	<< Calculating on displaced geometry  36 (of  36) >>

-----------------------
VIBRATIONAL FREQUENCIES
-----------------------

Scaling factor for frequencies =  1.000000000 (already applied!)

   0:         0.00 cm**-1
   1:         0.00 cm**-1
   2:         0.00 cm**-1
   3:         0.00 cm**-1
   4:         0.00 cm**-1
   5:         0.00 cm**-1
   6:       298.33 cm**-1
   7:       637.12 cm**-1
   8:       719.09 cm**-1
   9:       783.21 cm**-1
  10:       838.32 cm**-1
  11:       948.91 cm**-1
  12:      1737.04 cm**-1
  13:      1777.36 cm**-1
  14:      3373.44 cm**-1
  15:      3412.04 cm**-1
  16:      3497.27 cm**-1
  17:      3677.01 cm**-1


------------
NORMAL MODES
------------

These modes are the cartesian displacements weighted by the diagonal matrix
M(i,i)=1/sqrt(m[i]) where m[i] is the mass of the displaced atom
Thus, these vectors are normalized but *not* orthogonal

                  0          1          2          3          4          5    
      0       0.000000   0.000000   0.000000   0.000000   0.000000   0.000000
      1       0.000000   0.000000   0.000000   0.000000   0.000000   0.000000
      2       0.000000   0.000000   0.000000   0.000000   0.000000   0.000000
      3       0.000000   0.000000   0.000000   0.000000   0.000000   0.000000
      4       0.000000   0.000000   0.000000   0.000000   0.000000   0.000000
      5       0.000000   0.000000   0.000000   0.000000   0.000000   0.000000
      6       0.000000   0.000000   0.000000   0.000000   0.000000   0.000000
      7       0.000000   0.000000   0.000000   0.000000   0.000000   0.000000
      8       0.000000   0.000000   0.000000   0.000000   0.000000   0.000000
      9       0.000000   0.000000   0.000000   0.000000   0.000000   0.000000
     10       0.000000   0.000000   0.000000   0.000000   0.000000   0.000000
     11       0.000000   0.000000   0.000000   0.000000   0.000000   0.000000
     12       0.000000   0.000000   0.000000   0.000000   0.000000   0.000000
     13       0.000000   0.000000   0.000000   0.000000   0.000000   0.000000
     14       0.000000   0.000000   0.000000   0.000000   0.000000   0.000000
     15       0.000000   0.000000   0.000000   0.000000   0.000000   0.000000
     16       0.000000   0.000000   0.000000   0.000000   0.000000   0.000000
     17       0.000000   0.000000   0.000000   0.000000   0.000000   0.000000
                  6          7          8          9         10         11    
      0       0.184164   0.032359   0.492239   0.081854  -0.174375  -0.153435
      1      -0.141602  -0.001367  -0.177328   0.082585   0.531195   0.228140
      2      -0.228723  -0.040398  -0.383330  -0.243514  -0.460557  -0.091113
      3       0.287063  -0.012065  -0.002585  -0.015478   0.008427   0.021585
      4      -0.167780   0.029368   0.011768  -0.025586  -0.028099  -0.030964
      5      -0.290466  -0.020147   0.019857   0.021144   0.026208   0.019603
      6       0.406505   0.032273  -0.581032  -0.202243   0.088432  -0.101408
      7      -0.186228  -0.310714  -0.285384   0.124241  -0.238356   0.638595
      8      -0.198717   0.240568  -0.265772  -0.214287   0.220076  -0.501412
      9      -0.299017   0.279815   0.026503  -0.142315  -0.293890   0.099698
     10       0.119787  -0.178311   0.091408  -0.319289  -0.217453  -0.054105
     11       0.214924  -0.786344   0.127446  -0.348892   0.057640  -0.229758
     12      -0.289978   0.003954   0.010386   0.013328  -0.001572  -0.004348
     13       0.173342  -0.009970   0.004035   0.055378   0.025267  -0.030526
     14       0.291989   0.046178  -0.000411   0.067162  -0.038860   0.008849
     15      -0.245384  -0.215704  -0.061530   0.296818   0.271021  -0.118438
     16       0.119765   0.182507   0.120482  -0.360401  -0.030438   0.163335
     17       0.188349   0.173014   0.213003  -0.594905   0.383651   0.370686
                 12         13         14         15         16         17    
      0      -0.510700  -0.170711   0.594890   0.016733   0.047796   0.005003
      1       0.193277   0.067917   0.625117   0.046049   0.038155   0.007810
      2       0.402268   0.120739   0.492449   0.046847   0.030496   0.002938
      3       0.063992   0.021198  -0.034740  -0.033268   0.011153   0.002098
      4       0.010100   0.002578  -0.039191   0.023396  -0.013788  -0.002288
      5      -0.011759  -0.003509  -0.031844   0.037790  -0.019429  -0.002943
      6      -0.513856  -0.186440  -0.031402   0.491170  -0.224983  -0.038687
      7      -0.358294  -0.126194  -0.012862  -0.414137   0.180344   0.027253
      8      -0.197808  -0.057490  -0.001967  -0.643100   0.279522   0.044008
      9      -0.176672   0.483605  -0.009764   0.063242   0.022764   0.639036
     10      -0.149978   0.422571   0.018505  -0.078610  -0.074932  -0.668546
     11       0.035445  -0.120685  -0.007945   0.029330   0.033300   0.355208
     12       0.022916  -0.065091   0.002618  -0.016065  -0.031419  -0.035355
     13       0.004297  -0.004262   0.003874  -0.014988  -0.041594   0.046224
     14       0.002746  -0.003197  -0.000020   0.004664   0.012667  -0.023291
     15      -0.178181   0.570209  -0.043887   0.211873   0.476091  -0.077497
     16       0.086495  -0.337557  -0.070207   0.313246   0.735451  -0.063871
     17      -0.096849   0.163874   0.023207  -0.106914  -0.235996   0.014235


-----------
IR SPECTRUM
-----------

 Mode   freq       eps      Int      T**2         TX        TY        TZ
       cm**-1   L/(mol*cm) km/mol    a.u.
----------------------------------------------------------------------------
  6:    298.33   0.001828    9.24  0.001912  ( 0.025307 -0.020478 -0.029186)
  7:    637.12   0.006430   32.50  0.003150  ( 0.011986 -0.031241 -0.045055)
  8:    719.09   0.002118   10.70  0.000919  (-0.016568 -0.017756 -0.018144)
  9:    783.21   0.046276  233.86  0.018438  ( 0.007687 -0.044678 -0.127995)
 10:    838.32   0.000909    4.59  0.000338  (-0.011212  0.007348  0.012591)
 11:    948.91   0.019413   98.11  0.006384  (-0.024273  0.072182 -0.024185)
 12:   1737.04   0.030026  151.74  0.005394  (-0.070086  0.001378  0.021915)
 13:   1777.36   0.007270   36.74  0.001276  ( 0.033040  0.007107  0.011589)
 14:   3373.44   0.005207   26.31  0.000482  ( 0.006698  0.012920  0.016428)
 15:   3412.04   0.124255  627.93  0.011364  ( 0.068198 -0.037086 -0.073061)
 16:   3497.27   0.025874  130.76  0.002309  (-0.018042  0.039460  0.020643)
 17:   3677.01   0.012201   61.66  0.001035  ( 0.010480 -0.026191  0.015480)

* The epsilon (eps) is given for a Dirac delta lineshape.
** The dipole moment derivative (T) already includes vibrational overlap.

The first frequency considered to be a vibration is 6
The total number of vibrations considered is 12


--------------------------
THERMOCHEMISTRY AT 298.15K
--------------------------

Temperature         ... 298.15 K
Pressure            ... 1.00 atm
Total Mass          ... 36.03 AMU

Throughout the following assumptions are being made:
  (1) The electronic state is orbitally nondegenerate
  (2) There are no thermally accessible electronically excited states
  (3) Hindered rotations indicated by low frequency modes are not
      treated as such but are treated as vibrations and this may
      cause some error
  (4) All equations used are the standard statistical mechanics
      equations for an ideal gas
  (5) All vibrations are strictly harmonic

freq.     298.33  E(vib)   ...       0.26 
freq.     637.12  E(vib)   ...       0.09 
freq.     719.09  E(vib)   ...       0.07 
freq.     783.21  E(vib)   ...       0.05 
freq.     838.32  E(vib)   ...       0.04 
freq.     948.91  E(vib)   ...       0.03 
freq.    1737.04  E(vib)   ...       0.00 
freq.    1777.36  E(vib)   ...       0.00 
freq.    3373.44  E(vib)   ...       0.00 
freq.    3412.04  E(vib)   ...       0.00 
freq.    3497.27  E(vib)   ...       0.00 
freq.    3677.01  E(vib)   ...       0.00 

------------
INNER ENERGY
------------

The inner energy is: U= E(el) + E(ZPE) + E(vib) + E(rot) + E(trans)
    E(el)   - is the total energy from the electronic structure calculation
              = E(kin-el) + E(nuc-el) + E(el-el) + E(nuc-nuc)
    E(ZPE)  - the the zero temperature vibrational energy from the frequency calculation
    E(vib)  - the the finite temperature correction to E(ZPE) due to population
              of excited vibrational states
    E(rot)  - is the rotational thermal energy
    E(trans)- is the translational thermal energy

Summary of contributions to the inner energy U:
Electronic energy                ...  -1161.01997933 Eh
Zero point energy                ...      0.04943431 Eh      31.02 kcal/mol
Thermal vibrational correction   ...      0.00086777 Eh       0.54 kcal/mol
Thermal rotational correction    ...      0.00141627 Eh       0.89 kcal/mol
Thermal translational correction ...      0.00141627 Eh       0.89 kcal/mol
-----------------------------------------------------------------------
Total thermal energy                  -1160.96684471 Eh


Summary of corrections to the electronic energy:
(perhaps to be used in another calculation)
Total thermal correction                  0.00370032 Eh       2.32 kcal/mol
Non-thermal (ZPE) correction              0.04943431 Eh      31.02 kcal/mol
-----------------------------------------------------------------------
Total correction                          0.05313462 Eh      33.34 kcal/mol


--------
ENTHALPY
--------

The enthalpy is H = U + kB*T
                kB is Boltzmann's constant
Total free energy                 ...  -1160.96684471 Eh 
Thermal Enthalpy correction       ...      0.00094421 Eh       0.59 kcal/mol
-----------------------------------------------------------------------
Total Enthalpy                    ...  -1160.96590050 Eh


Note: Only C1 symmetry has been detected, increase convergence thresholds 
      if your molecule has a higher symmetry. Symmetry factor of 1.0 is   
      used for the rotational entropy correction. 
 

Note: Rotational entropy computed according to Herzberg 
Infrared and Raman Spectra, Chapter V,1, Van Nostrand Reinhold, 1945 
Point Group:  C1, Symmetry Number:   1  
Rotational constants in cm-1:     6.663722     0.242112     0.239754 

Vibrational entropy computed according to the QRRHO of S. Grimme
Chem.Eur.J. 2012 18 9955


-------
ENTROPY
-------

The entropy contributions are T*S = T*(S(el)+S(vib)+S(rot)+S(trans))
     S(el)   - electronic entropy
     S(vib)  - vibrational entropy
     S(rot)  - rotational entropy
     S(trans)- translational entropy
The entropies will be listed as multiplied by the temperature to get
units of energy

Electronic entropy                ...      0.00000000 Eh      0.00 kcal/mol
Vibrational entropy               ...      0.00124879 Eh      0.78 kcal/mol
Rotational entropy                ...      0.00995921 Eh      6.25 kcal/mol
Translational entropy             ...      0.01742549 Eh     10.93 kcal/mol
-----------------------------------------------------------------------
Final entropy term                ...      0.02863348 Eh     17.97 kcal/mol

In case the symmetry of your molecule has not been determined correctly
or in case you have a reason to use a different symmetry number we print 
out the resulting rotational entropy values for sn=1,12 :
 --------------------------------------------------------
|  sn= 1 | S(rot)=       0.00995921 Eh      6.25 kcal/mol|
|  sn= 2 | S(rot)=       0.00930475 Eh      5.84 kcal/mol|
|  sn= 3 | S(rot)=       0.00892192 Eh      5.60 kcal/mol|
|  sn= 4 | S(rot)=       0.00865030 Eh      5.43 kcal/mol|
|  sn= 5 | S(rot)=       0.00843961 Eh      5.30 kcal/mol|
|  sn= 6 | S(rot)=       0.00826746 Eh      5.19 kcal/mol|
|  sn= 7 | S(rot)=       0.00812192 Eh      5.10 kcal/mol|
|  sn= 8 | S(rot)=       0.00799584 Eh      5.02 kcal/mol|
|  sn= 9 | S(rot)=       0.00788463 Eh      4.95 kcal/mol|
|  sn=10 | S(rot)=       0.00778515 Eh      4.89 kcal/mol|
|  sn=11 | S(rot)=       0.00769516 Eh      4.83 kcal/mol|
|  sn=12 | S(rot)=       0.00761301 Eh      4.78 kcal/mol|
 --------------------------------------------------------


-------------------
GIBBS FREE ENERGY
-------------------

The Gibbs free energy is G = H - T*S

Total enthalpy                    ...  -1160.96590050 Eh 
Total entropy correction          ...     -0.02863348 Eh    -17.97 kcal/mol
-----------------------------------------------------------------------
Final Gibbs free energy         ...  -1160.99453398 Eh

For completeness - the Gibbs free energy minus the electronic energy
G-E(el)                           ...      0.02544535 Eh     15.97 kcal/mol



Timings for individual modules:

Sum of individual times         ...      493.305 sec (=   8.222 min)
GTO integral calculation        ...       24.747 sec (=   0.412 min)   5.0 %
SCF iterations                  ...      242.441 sec (=   4.041 min)  49.1 %
SCF Gradient evaluation         ...       24.516 sec (=   0.409 min)   5.0 %
Geometry relaxation             ...        0.547 sec (=   0.009 min)   0.1 %
Numerical frequency calculation ...       99.340 sec (=   1.656 min)  20.1 %
XTB module                      ...       50.982 sec (=   0.850 min)  10.3 %
ONIOM_Small energy and gradient ...        1.818 sec (=   0.030 min)   0.4 %
ONIOM_Large energy and gradient ...       48.914 sec (=   0.815 min)   9.9 %
                             ****ORCA TERMINATED NORMALLY****
TOTAL RUN TIME: 0 days 0 hours 7 minutes 56 seconds 67 msec
