
                                 *****************
                                 * O   R   C   A *
                                 *****************

                                            #,                                       
                                            ###                                      
                                            ####                                     
                                            #####                                    
                                            ######                                   
                                           ########,                                 
                                     ,,################,,,,,                         
                               ,,#################################,,                 
                          ,,##########################################,,             
                       ,#########################################, ''#####,          
                    ,#############################################,,   '####,        
                  ,##################################################,,,,####,       
                ,###########''''           ''''###############################       
              ,#####''   ,,,,##########,,,,          '''####'''          '####       
            ,##' ,,,,###########################,,,                        '##       
           ' ,,###''''                  '''############,,,                           
         ,,##''                                '''############,,,,        ,,,,,,###''
      ,#''                                            '''#######################'''  
     '                                                          ''''####''''         
             ,#######,   #######,   ,#######,      ##                                
            ,#'     '#,  ##    ##  ,#'     '#,    #''#        ######   ,####,        
            ##       ##  ##   ,#'  ##            #'  '#       #        #'  '#        
            ##       ##  #######   ##           ,######,      #####,   #    #        
            '#,     ,#'  ##    ##  '#,     ,#' ,#      #,         ##   #,  ,#        
             '#######'   ##     ##  '#######'  #'      '#     #####' # '####'        



                  #######################################################
                  #                        -***-                        #
                  #          Department of theory and spectroscopy      #
                  #    Directorship and core code : Frank Neese         #
                  #        Max Planck Institute fuer Kohlenforschung    #
                  #                Kaiser Wilhelm Platz 1               #
                  #                 D-45470 Muelheim/Ruhr               #
                  #                      Germany                        #
                  #                                                     #
                  #                  All rights reserved                #
                  #                        -***-                        #
                  #######################################################


                         Program Version 5.0.2 -  RELEASE  -


 With contributions from (in alphabetic order):
   Daniel Aravena         : Magnetic Suceptibility
   Michael Atanasov       : Ab Initio Ligand Field Theory (pilot matlab implementation)
   Alexander A. Auer      : GIAO ZORA, VPT2 properties, NMR spectrum
   Ute Becker             : Parallelization
   Giovanni Bistoni       : ED, misc. LED, open-shell LED, HFLD
   Martin Brehm           : Molecular dynamics
   Dmytro Bykov           : SCF Hessian
   Vijay G. Chilkuri      : MRCI spin determinant printing, contributions to CSF-ICE
   Dipayan Datta          : RHF DLPNO-CCSD density
   Achintya Kumar Dutta   : EOM-CC, STEOM-CC
   Dmitry Ganyushin       : Spin-Orbit,Spin-Spin,Magnetic field MRCI
   Miquel Garcia          : C-PCM and meta-GGA Hessian, CC/C-PCM, Gaussian charge scheme
   Yang Guo               : DLPNO-NEVPT2, F12-NEVPT2, CIM, IAO-localization
   Andreas Hansen         : Spin unrestricted coupled pair/coupled cluster methods
   Benjamin Helmich-Paris : MC-RPA, TRAH-SCF, COSX integrals
   Lee Huntington         : MR-EOM, pCC
   Robert Izsak           : Overlap fitted RIJCOSX, COSX-SCS-MP3, EOM
   Marcus Kettner         : VPT2
   Christian Kollmar      : KDIIS, OOCD, Brueckner-CCSD(T), CCSD density, CASPT2, CASPT2-K
   Simone Kossmann        : Meta GGA functionals, TD-DFT gradient, OOMP2, MP2 Hessian
   Martin Krupicka        : Initial AUTO-CI
   Lucas Lang             : DCDCAS
   Marvin Lechner         : AUTO-CI (C++ implementation), FIC-MRCC
   Dagmar Lenk            : GEPOL surface, SMD
   Dimitrios Liakos       : Extrapolation schemes; Compound Job, initial MDCI parallelization
   Dimitrios Manganas     : Further ROCIS development; embedding schemes
   Dimitrios Pantazis     : SARC Basis sets
   Anastasios Papadopoulos: AUTO-CI, single reference methods and gradients
   Taras Petrenko         : DFT Hessian,TD-DFT gradient, ASA, ECA, R-Raman, ABS, FL, XAS/XES, NRVS
   Peter Pinski           : DLPNO-MP2, DLPNO-MP2 Gradient
   Christoph Reimann      : Effective Core Potentials
   Marius Retegan         : Local ZFS, SOC
   Christoph Riplinger    : Optimizer, TS searches, QM/MM, DLPNO-CCSD(T), (RO)-DLPNO pert. Triples
   Tobias Risthaus        : Range-separated hybrids, TD-DFT gradient, RPA, STAB
   Michael Roemelt        : Original ROCIS implementation
   Masaaki Saitow         : Open-shell DLPNO-CCSD energy and density
   Barbara Sandhoefer     : DKH picture change effects
   Avijit Sen             : IP-ROCIS
   Kantharuban Sivalingam : CASSCF convergence, NEVPT2, FIC-MRCI
   Bernardo de Souza      : ESD, SOC TD-DFT
   Georgi Stoychev        : AutoAux, RI-MP2 NMR, DLPNO-MP2 response
   Willem Van den Heuvel  : Paramagnetic NMR
   Boris Wezisla          : Elementary symmetry handling
   Frank Wennmohs         : Technical directorship


 We gratefully acknowledge several colleagues who have allowed us to
 interface, adapt or use parts of their codes:
   Stefan Grimme, W. Hujo, H. Kruse, P. Pracht,  : VdW corrections, initial TS optimization,
                  C. Bannwarth, S. Ehlert          DFT functionals, gCP, sTDA/sTD-DF
   Ed Valeev, F. Pavosevic, A. Kumar             : LibInt (2-el integral package), F12 methods
   Garnet Chan, S. Sharma, J. Yang, R. Olivares  : DMRG
   Ulf Ekstrom                                   : XCFun DFT Library
   Mihaly Kallay                                 : mrcc  (arbitrary order and MRCC methods)
   Jiri Pittner, Ondrej Demel                    : Mk-CCSD
   Frank Weinhold                                : gennbo (NPA and NBO analysis)
   Christopher J. Cramer and Donald G. Truhlar   : smd solvation model
   Lars Goerigk                                  : TD-DFT with DH, B97 family of functionals
   V. Asgeirsson, H. Jonsson                     : NEB implementation
   FAccTs GmbH                                   : IRC, NEB, NEB-TS, DLPNO-Multilevel, CI-OPT
                                                   MM, QMMM, 2- and 3-layer-ONIOM, Crystal-QMMM,
                                                   LR-CPCM, SF, NACMEs, symmetry and pop. for TD-DFT,
                                                   nearIR, NL-DFT gradient (VV10), updates on ESD,
                                                   ML-optimized integration grids
   S Lehtola, MJT Oliveira, MAL Marques          : LibXC Library
   Liviu Ungur et al                             : ANISO software


 Your calculation uses the libint2 library for the computation of 2-el integrals
 For citations please refer to: http://libint.valeyev.net

 Your ORCA version has been built with support for libXC version: 5.1.0
 For citations please refer to: https://tddft.org/programs/libxc/

 This ORCA versions uses:
   CBLAS   interface :  Fast vector & matrix operations
   LAPACKE interface :  Fast linear algebra routines
   SCALAPACK package :  Parallel linear algebra routines
   Shared memory     :  Shared parallel matrices
   BLAS/LAPACK       :  OpenBLAS 0.3.15  USE64BITINT DYNAMIC_ARCH NO_AFFINITY Haswell SINGLE_THREADED
        Core in use  :  Haswell
   Copyright (c) 2011-2014, The OpenBLAS Project




***************************************
The coordinates will be read from file: cluster_opt.xyz
***************************************


Preparing ONIOM calculation             ...         done
================================================================================

----- Orbital basis set information -----
Your calculation utilizes the basis: aug-cc-pVTZ 
    H, B-Ne : Obtained from the ccRepo (grant-hill.group.shef.ac.uk/ccrepo) Feb. 2017
              R. A. Kendall, T. H. Dunning, Jr., R. J. Harrison, J. Chem. Phys. 96, 6796 (1992)
         He : Obtained from the ccRepo (grant-hill.group.shef.ac.uk/ccrepo) Feb. 2017
              D. E. Woon, T. H. Dunning, Jr., J. Chem. Phys. 100, 2975 (1994)
  Li-Be, Na : Obtained from the ccRepo (grant-hill.group.shef.ac.uk/ccrepo) Feb. 2017
              B. P. Prascher, D. E. Woon, K. A. Peterson, T. H. Dunning, Jr., A. K. Wilson, Theor. Chem. Acc. 128, 69 (2011)
         Mg : Obtained from the Peterson Research Group Website (tyr0.chem.wsu.edu/~kipeters) Feb. 2017
              B. P. Prascher, D. E. Woon, K. A. Peterson, T. H. Dunning, Jr., A. K. Wilson, Theor. Chem. Acc. 128, 69 (2011)
      Al-Ar : Obtained from the ccRepo (grant-hill.group.shef.ac.uk/ccrepo) Feb. 2017
              D. E. Woon, T. H. Dunning, Jr., J. Chem. Phys. 98, 1358 (1993)
      Sc-Zn : Obtained from the ccRepo (grant-hill.group.shef.ac.uk/ccrepo) Feb. 2017
              N. B. Balabanov, K. A. Peterson, J. Chem. Phys. 123, 064107 (2005)
              N. B. Balabanov, K. A. Peterson, J. Chem. Phys. 125, 074110 (2006)
      Ga-Kr : Obtained from the ccRepo (grant-hill.group.shef.ac.uk/ccrepo) Feb. 2017
              A. K. Wilson, D. E. Woon, K. A. Peterson, T. H. Dunning, Jr., J. Chem. Phys. 110, 7667 (1999)
     Ag, Au : Obtained from the Peterson Research Group Website (tyr0.chem.wsu.edu/~kipeters) Feb. 2017
              K. A. Peterson, C. Puzzarini, Theor. Chem. Acc. 114, 283 (2005)

----- AuxC basis set information -----
Your calculation utilizes the auxiliary basis: aug-cc-pVTZ/C 
  H-He, B-F, Al-Ar, Ga-Kr : Obtained from the EMSL Basis Set Exchange (bse.pnl.gov) Feb. 2017
                            F. Weigend, A. Kohn, C. Hattig, J. Chem. Phys. 116, 3175 (2002)
                   Be, Mg : Obtained from the TURBOMOLE 7.0 basis set library
                            C. Haettig, Phys. Chem. Chem. Phys. 7, 59 (2005)
                       Ne : Obtained from the EMSL Basis Set Exchange (bse.pnl.gov) Feb. 2017
                            C. Haettig, Phys. Chem. Chem. Phys. 7, 59 (2005)
                            F. Weigend, A. Kohn, C. Hattig, J. Chem. Phys. 116, 3175 (2002)
                    Sc-Zn : Obtained from the EMSL Basis Set Exchange (bse.pnl.gov) Feb. 2017
                            J. G. Hill, J. A. Platts, J. Chem. Phys. 128, 044104 (2008)

================================================================================
                                        WARNINGS
                       Please study these warnings very carefully!
================================================================================


WARNING: Post HF methods need fully converged wavefunctions
  ===> : Setting SCFConvForced true
         You can overwrite this default with %scf ConvForced false 


WARNING: MDCI localization with Augmented Hessian Foster-Boys
  ===> : Switching off randomization!

INFO   : the flag for use of the SHARK integral package has been found!

================================================================================
                                       INPUT FILE
================================================================================
NAME = cluster_dlpno_SP.inp
|  1> !QM/XTB2 DLPNO-CCSD(T) aug-cc-pVTZ aug-cc-pVTZ/C TightPNO
|  2> %maxcore 2000
|  3> %pal
|  4> nprocs 10
|  5> end
|  6> %qmmm
|  7> QMAtoms {438 439 440 501 502 503 } end 
|  8> ActiveAtoms {438 439 440 501 502 503 } end 
|  9> end
| 10> *xyzfile 0 1 cluster_opt.xyz 
| 11> 
| 12> 
| 13>                          ****END OF INPUT****
================================================================================

------------------------------------------------------------------------------

                             **************************
                             *    2-layered ONIOM     *
                             **************************


------------------------------------------------------------------------------




Multiscale model                       ... QM1/QM2
QM2 method                             ... XTB2
Coupling Scheme                        ... subtractive
Embedding Scheme                       ... electrostatic
PrintLevel                             ... 1
Method for determining QM2 charges     ... Hirshfeld
Charge of total system                 ... 0
Charge alteration scheme               ... Charge shifting
Scaling factor for CS scheme           ... 0.06
Gradient projection scheme             ... Lever rule
Scaling factor for QM2 charges         ... 1.00
AutoFF method                          ... XTB2
AutoFF boundary                        ... no covalent bonds
Point charges in QM calc. from MM atoms... 594
              from charge shift scheme ... 0
Printing trajectories, xyz and allxyz files:
        QMMMRegion                     ... YES
        activeRegion                   ... YES
        activeRegionExt                ... NO
        qmRegion                       ... YES
        qm2Region                      ... NO
Parameter files:
        ORCA Forcefield Filename       ... cluster_dlpno_SP_L_QM2.ORCAFF.prms.tmp
        QM-LA bond distances Filename  ... cluster_dlpno_SP.H_DIST.prms.tmp
Forcefield type                        ... ORCA
Size of different subsystems (in atoms):
Size of QMMM System                    ... 600
Size of QM2 Subsystem                  ... 594
Size of QM1 Subsystem                  ... 6
Number of link atoms                   ... 0
Size of QM1 Subsystem plus link atoms  ... 6
Size of region for optimizer           ... 16
        optimized atoms = activeRegion ... 6
        fixed atoms (distance cutoff)  ... 10 ( 1.0)
Composition of different systems (atoms start counting at 0):
QM1 Subsystem                          ... 438 439 440 501 502 503 
Active atoms                           ... 438 439 440 501 502 503 
Fixed atoms used in optimizer          ... 330 331 332 381 382 383 389 507 513 514 

                       ****************************
                       * Single Point Calculation *
                       ****************************

                    ************************************                      
                    *       QM/   XTB2 SP Energy       *                      
                    ************************************                      


------------------------------------------------------------------------------
                          XTB2 - FULL SYSTEM                         
------------------------------------------------------------------------------
Running XTB calculation
---------------------------------   --------------------
FINAL SINGLE POINT ENERGY (L-QM2)    -1018.344954235600
---------------------------------   --------------------
------------------------------------------------------------------------------
                                  XTB2 - SMALL SYSTEM                         
------------------------------------------------------------------------------
Running XTB calculation
---------------------------------   --------------------
FINAL SINGLE POINT ENERGY (S-QM2)      -10.181695773660
---------------------------------   --------------------
------------------------------------------------------------------------------
                                QM - SMALL SYSTEM                           
------------------------------------------------------------------------------
---------------------------------
CARTESIAN COORDINATES (ANGSTROEM)
---------------------------------
  H     -7.029993   -3.425299   -3.428073
  O     -7.636445   -4.038555   -3.902089
  H     -7.062504   -4.464553   -4.573440
  H     -5.192595   -5.717807   -5.358648
  O     -5.841771   -5.083726   -5.701382
  H     -5.295145   -4.306362   -5.937889

----------------------------
CARTESIAN COORDINATES (A.U.)
----------------------------
  NO LB      ZA    FRAG     MASS         X           Y           Z
   0 H     1.0000    0     1.008  -13.284762   -6.472876   -6.478120
   1 O     8.0000    0    15.999  -14.430789   -7.631763   -7.373880
   2 H     1.0000    0     1.008  -13.346197   -8.436783   -8.642550
   3 H     1.0000    0     1.008   -9.812582  -10.805089  -10.126377
   4 O     8.0000    0    15.999  -11.039347   -9.606850  -10.774050
   5 H     1.0000    0     1.008  -10.006374   -8.137844  -11.220985

--------------------------------
INTERNAL COORDINATES (ANGSTROEM)
--------------------------------
 H      0   0   0     0.000000000000     0.00000000     0.00000000
 O      1   0   0     0.984153286085     0.00000000     0.00000000
 H      2   1   0     0.980609442091   103.87388358     0.00000000
 H      3   2   1     2.384062536996   155.91176640    56.96228092
 O      4   3   2     0.970028344880    41.22233609   199.90721801
 H      5   4   3     0.979301340502   103.33584570   115.25308078

---------------------------
INTERNAL COORDINATES (A.U.)
---------------------------
 H      0   0   0     0.000000000000     0.00000000     0.00000000
 O      1   0   0     1.859780184500     0.00000000     0.00000000
 H      2   1   0     1.853083289890   103.87388358     0.00000000
 H      3   2   1     4.505225281063   155.91176640    56.96228092
 O      4   3   2     1.833087913964    41.22233609   199.90721801
 H      5   4   3     1.850611336131   103.33584570   115.25308078

---------------------
BASIS SET INFORMATION
---------------------
There are 2 groups of distinct atoms

 Group   1 Type H   : 6s3p2d contracted to 4s3p2d pattern {3111/111/11}
 Group   2 Type O   : 19s6p3d2f contracted to 5s4p3d2f pattern {88111/3111/111/11}

Atom   0H    basis set group =>   1
Atom   1O    basis set group =>   2
Atom   2H    basis set group =>   1
Atom   3H    basis set group =>   1
Atom   4O    basis set group =>   2
Atom   5H    basis set group =>   1
---------------------------------
AUXILIARY/C BASIS SET INFORMATION
---------------------------------
There are 2 groups of distinct atoms

 Group   1 Type H   : 5s4p3d2f contracted to 5s4p3d2f pattern {11111/1111/111/11}
 Group   2 Type O   : 9s7p6d4f2g contracted to 9s7p6d4f2g pattern {111111111/1111111/111111/1111/11}

Atom   0H    basis set group =>   1
Atom   1O    basis set group =>   2
Atom   2H    basis set group =>   1
Atom   3H    basis set group =>   1
Atom   4O    basis set group =>   2
Atom   5H    basis set group =>   1


           ************************************************************
           *        Program running with 10 parallel MPI-processes    *
           *              working on a common directory               *
           ************************************************************
------------------------------------------------------------------------------
                           ORCA GTO INTEGRAL CALCULATION
------------------------------------------------------------------------------
------------------------------------------------------------------------------
                   ___                                                        
                  /   \      - P O W E R E D   B Y -                         
                 /     \                                                     
                 |  |  |   _    _      __       _____    __    __             
                 |  |  |  | |  | |    /  \     |  _  \  |  |  /  |          
                  \  \/   | |  | |   /    \    | | | |  |  | /  /          
                 / \  \   | |__| |  /  /\  \   | |_| |  |  |/  /          
                |  |  |   |  __  | /  /__\  \  |    /   |      \           
                |  |  |   | |  | | |   __   |  |    \   |  |\   \          
                \     /   | |  | | |  |  |  |  | |\  \  |  | \   \       
                 \___/    |_|  |_| |__|  |__|  |_| \__\ |__|  \__/        
                                                                              
                      - O R C A' S   B I G   F R I E N D -                    
                                      &                                       
                       - I N T E G R A L  F E E D E R -                       
                                                                              
 v1 FN, 2020, v2 2021                                                         
------------------------------------------------------------------------------


Reading SHARK input file cluster_dlpno_SP.SHARKINP.tmp ... ok
----------------------
SHARK INTEGRAL PACKAGE
----------------------

Number of atoms                             ...      6
Number of basis functions                   ...    196
Number of shells                            ...     76
Maximum angular momentum                    ...      3
Integral batch strategy                     ... SHARK/LIBINT Hybrid
RI-J (if used) integral strategy            ... SPLIT-RIJ (Revised 2003 algorithm where possible)
Printlevel                                  ...      1
Contraction scheme used                     ... PARTIAL GENERAL contraction
Coulomb Range Separation                    ... NOT USED
Exchange Range Separation                   ... NOT USED
Finite Nucleus Model                        ... NOT USED
Auxiliary Coulomb fitting basis             ... NOT available
Auxiliary J/K fitting basis                 ... NOT available
Auxiliary Correlation fitting basis         ... AVAILABLE
   # of basis functions in Aux-C            ...    396
   # of shells in Aux-C                     ...    112
   Maximum angular momentum in Aux-C        ...      4
Auxiliary 'external' fitting basis          ... NOT available
Integral threshold                          ...     1.000000e-10
Primitive cut-off                           ...     1.000000e-11
Primitive pair pre-selection threshold      ...     1.000000e-11

Calculating pre-screening integrals         ... done (  0.0 sec) Dimension = 76
Calculating pre-screening integrals (ORCA)  ... done (  0.1 sec) Dimension = 64
Organizing shell pair data                  ... done (  0.0 sec)
Shell pair information
Total number of shell pairs                 ...      2926
Shell pairs after pre-screening             ...      2742
Total number of primitive shell pairs       ...      3934
Primitive shell pairs kept                  ...      3510
          la=0 lb=0:    655 shell pairs
          la=1 lb=0:    720 shell pairs
          la=1 lb=1:    205 shell pairs
          la=2 lb=0:    496 shell pairs
          la=2 lb=1:    277 shell pairs
          la=2 lb=2:    105 shell pairs
          la=3 lb=0:    138 shell pairs
          la=3 lb=1:     80 shell pairs
          la=3 lb=2:     56 shell pairs
          la=3 lb=3:     10 shell pairs

Reading point charge file                   ... ok (594 point charges)
Calculating one electron integrals          ... done (  0.1 sec)
Calculating RI/C V-Matrix + Cholesky decomp.... done (  0.2 sec)
Calculating Nuclear repulsion               ... (+Point charges) done (  0.0 sec) ENN=     37.751083117350 Eh

SHARK setup successfully completed in   1.5 seconds

Maximum memory used throughout the entire GTOINT-calculation: 19.4 MB
ENUC WAS=  0.000000000
ENUC IS =  0.000000000


           ************************************************************
           *        Program running with 10 parallel MPI-processes    *
           *              working on a common directory               *
           ************************************************************
-------------------------------------------------------------------------------
                                 ORCA SCF
-------------------------------------------------------------------------------

------------
SCF SETTINGS
------------
Hamiltonian:
 Ab initio Hamiltonian  Method          .... Hartree-Fock(GTOs)


General Settings:
 Integral files         IntName         .... cluster_dlpno_SP
 Hartree-Fock type      HFTyp           .... RHF
 Total Charge           Charge          ....    0
 Multiplicity           Mult            ....    1
 Number of Electrons    NEL             ....   20
 Basis Dimension        Dim             ....  184
 Nuclear Repulsion      ENuc            ....     37.7510831173 Eh

Convergence Acceleration:
 DIIS                   CNVDIIS         .... on
   Start iteration      DIISMaxIt       ....    12
   Startup error        DIISStart       ....  0.200000
   # of expansion vecs  DIISMaxEq       ....     5
   Bias factor          DIISBfac        ....   1.050
   Max. coefficient     DIISMaxC        ....  10.000
 Trust-Rad. Augm. Hess. CNVTRAH         .... auto
   Auto Start mean grad. ratio tolernc. ....  1.125000
   Auto Start start iteration           ....    20
   Auto Start num. interpolation iter.  ....    10
   Max. Number of Micro iterations      ....    16
   Max. Number of Macro iterations      .... Maxiter - #DIIS iter
   Number of Davidson start vectors     ....     2
   Converg. threshold I  (grad. norm)   ....   5.000e-05
   Converg. threshold II (energy diff.) ....   1.000e-06
   Grad. Scal. Fac. for Micro threshold ....   0.100
   Minimum threshold for Micro iter.    ....   0.010
   NR start threshold (gradient norm)   ....   0.001
   Initial trust radius                 ....   0.400
   Minimum AH scaling param. (alpha)    ....   1.000
   Maximum AH scaling param. (alpha)    .... 1000.000
   Orbital update algorithm             .... Taylor
   White noise on init. David. guess    .... on
   Maximum white noise                  ....   0.010
   Quad. conv. algorithm                .... NR
 SOSCF                  CNVSOSCF        .... on
   Start iteration      SOSCFMaxIt      ....   150
   Startup grad/error   SOSCFStart      ....  0.003300
 Level Shifting         CNVShift        .... on
   Level shift para.    LevelShift      ....    0.2500
   Turn off err/grad.   ShiftErr        ....    0.0010
 Zerner damping         CNVZerner       .... off
 Static damping         CNVDamp         .... on
   Fraction old density DampFac         ....    0.7000
   Max. Damping (<1)    DampMax         ....    0.9800
   Min. Damping (>=0)   DampMin         ....    0.0000
   Turn off err/grad.   DampErr         ....    0.1000
 Fernandez-Rico         CNVRico         .... off

SCF Procedure:
 Maximum # iterations   MaxIter         ....   125
 SCF integral mode      SCFMode         .... Direct
   Integral package                     .... SHARK and LIBINT hybrid scheme
 Reset frequency        DirectResetFreq ....    20
 Integral Threshold     Thresh          ....  1.000e-10 Eh
 Primitive CutOff       TCut            ....  1.000e-11 Eh

Convergence Tolerance:
 Convergence Check Mode ConvCheckMode   .... Total+1el-Energy
 Convergence forced     ConvForced      .... 1
 Energy Change          TolE            ....  1.000e-06 Eh
 1-El. energy change                    ....  1.000e-03 Eh
 Orbital Gradient       TolG            ....  5.000e-05
 Orbital Rotation angle TolX            ....  5.000e-05
 DIIS Error             TolErr          ....  1.000e-06


Diagonalization of the overlap matrix:
Smallest eigenvalue                        ... 2.508e-04
Time for diagonalization                   ...    0.099 sec
Threshold for overlap eigenvalues          ... 1.000e-08
Number of eigenvalues below threshold      ... 0
Time for construction of square roots      ...    0.010 sec
Total time needed                          ...    0.111 sec

Time for model grid setup =    0.527 sec

------------------------------
INITIAL GUESS: MODEL POTENTIAL
------------------------------
Loading Hartree-Fock densities                     ... done
Calculating cut-offs                               ... done
Initializing the effective Hamiltonian             ... done
Setting up the integral package (SHARK)            ... done
Starting the Coulomb interaction                   ... done (   0.1 sec)
Reading the grid                                   ... done
Mapping shells                                     ... done
Starting the XC term evaluation                    ... done (   0.0 sec)
Transforming the Hamiltonian                       ... done (   0.0 sec)
Diagonalizing the Hamiltonian                      ... done (   0.0 sec)
Back transforming the eigenvectors                 ... done (   0.0 sec)
Now organizing SCF variables                       ... done
                      ------------------
                      INITIAL GUESS DONE (   0.6 sec)
                      ------------------
--------------
SCF ITERATIONS
--------------
ITER       Energy         Delta-E        Max-DP      RMS-DP      [F,P]     Damp
               ***  Starting incremental Fock matrix formation  ***
  0   -151.9688723014   0.000000000000 0.02839779  0.00071524  0.3985018 0.7000
  1   -152.0499705489  -0.081098247546 0.01892081  0.00049309  0.2303108 0.7000
                               ***Turning on DIIS***
  2   -152.0925543677  -0.042583818790 0.01178605  0.00028231  0.1187535 0.7000
  3   -152.4072579423  -0.314703574599 0.03052763  0.00054710  0.0854612 0.0000
  4   -152.1256450627   0.281612879604 0.00476876  0.00009722  0.0124234 0.0000
                      *** Initiating the SOSCF procedure ***
                           *** Shutting down DIIS ***
                      *** Re-Reading the Fockian *** 
                      *** Removing any level shift *** 
ITER      Energy       Delta-E        Grad      Rot      Max-DP    RMS-DP
  5   -152.17220777  -0.0465627065  0.001268  0.001268  0.002383  0.000050
               *** Restarting incremental Fock matrix formation ***
  6   -152.17456812  -0.0023603523  0.000397  0.000602  0.001298  0.000023
  7   -152.17458099  -0.0000128691  0.000241  0.000415  0.001032  0.000018
  8   -152.17458387  -0.0000028781  0.000090  0.000059  0.000228  0.000004
  9   -152.17458405  -0.0000001860  0.000022  0.000016  0.000029  0.000001
                 **** Energy Check signals convergence ****
              ***Rediagonalizing the Fockian in SOSCF/NRSCF***

               *****************************************************
               *                     SUCCESS                       *
               *           SCF CONVERGED AFTER  10 CYCLES          *
               *****************************************************


----------------
TOTAL SCF ENERGY
----------------

Total Energy       :         -152.17458407 Eh           -4140.88095 eV

Components:
Nuclear Repulsion  :           37.75108312 Eh            1027.25920 eV
Electronic Energy  :         -189.92566719 Eh           -5168.14015 eV
One Electron Energy:         -284.79327796 Eh           -7749.61908 eV
Two Electron Energy:           94.86761077 Eh            2581.47893 eV

Virial components:
Potential Energy   :         -303.97371048 Eh           -8271.54518 eV
Kinetic Energy     :          151.79912642 Eh            4130.66423 eV
Virial Ratio       :            2.00247338


---------------
SCF CONVERGENCE
---------------

  Last Energy change         ...   -1.5097e-08  Tolerance :   1.0000e-06
  Last MAX-Density change    ...    5.1117e-06  Tolerance :   1.0000e-05
  Last RMS-Density change    ...    1.6140e-07  Tolerance :   1.0000e-06
  Last Orbital Gradient      ...    4.1311e-06  Tolerance :   5.0000e-05
  Last Orbital Rotation      ...    4.9446e-06  Tolerance :   5.0000e-05

             **** THE GBW FILE WAS UPDATED (cluster_dlpno_SP.gbw) ****
             **** DENSITY cluster_dlpno_SP.scfp WAS UPDATED ****
             **** ENERGY FILE WAS UPDATED (cluster_dlpno_SP.en.tmp) ****
             **** THE GBW FILE WAS UPDATED (cluster_dlpno_SP.gbw) ****
             **** DENSITY cluster_dlpno_SP.scfp WAS UPDATED ****
----------------
ORBITAL ENERGIES
----------------

  NO   OCC          E(Eh)            E(eV) 
   0   2.0000     -20.582793      -560.0863 
   1   2.0000     -20.567088      -559.6589 
   2   2.0000      -1.366704       -37.1899 
   3   2.0000      -1.341733       -36.5104 
   4   2.0000      -0.721725       -19.6391 
   5   2.0000      -0.712036       -19.3755 
   6   2.0000      -0.612622       -16.6703 
   7   2.0000      -0.586202       -15.9514 
   8   2.0000      -0.521612       -14.1938 
   9   2.0000      -0.516479       -14.0541 
  10   0.0000       0.017288         0.4704 
  11   0.0000       0.040136         1.0922 
  12   0.0000       0.049221         1.3394 
  13   0.0000       0.065540         1.7834 
  14   0.0000       0.123787         3.3684 
  15   0.0000       0.153268         4.1706 
  16   0.0000       0.163733         4.4554 
  17   0.0000       0.171758         4.6738 
  18   0.0000       0.183687         4.9984 
  19   0.0000       0.193901         5.2763 
  20   0.0000       0.216071         5.8796 
  21   0.0000       0.223017         6.0686 
  22   0.0000       0.233788         6.3617 
  23   0.0000       0.238911         6.5011 
  24   0.0000       0.263619         7.1734 
  25   0.0000       0.285757         7.7758 
  26   0.0000       0.291189         7.9236 
  27   0.0000       0.304156         8.2765 
  28   0.0000       0.361851         9.8465 
  29   0.0000       0.377393        10.2694 
  30   0.0000       0.401121        10.9151 
  31   0.0000       0.404699        11.0124 
  32   0.0000       0.415364        11.3026 
  33   0.0000       0.437217        11.8973 
  34   0.0000       0.453497        12.3403 
  35   0.0000       0.466205        12.6861 
  36   0.0000       0.482697        13.1348 
  37   0.0000       0.556797        15.1512 
  38   0.0000       0.583561        15.8795 
  39   0.0000       0.609338        16.5809 
  40   0.0000       0.670259        18.2387 
  41   0.0000       0.679403        18.4875 
  42   0.0000       0.696838        18.9619 
  43   0.0000       0.714024        19.4296 
  44   0.0000       0.729121        19.8404 
  45   0.0000       0.740064        20.1382 
  46   0.0000       0.768989        20.9253 
  47   0.0000       0.799794        21.7635 
  48   0.0000       0.824377        22.4325 
  49   0.0000       0.866769        23.5860 
  50   0.0000       0.867334        23.6014 
  51   0.0000       0.895860        24.3776 
  52   0.0000       0.899464        24.4757 
  53   0.0000       0.941022        25.6065 
  54   0.0000       0.943482        25.6735 
  55   0.0000       0.955320        25.9956 
  56   0.0000       0.978630        26.6299 
  57   0.0000       0.985422        26.8147 
  58   0.0000       1.004279        27.3278 
  59   0.0000       1.011001        27.5107 
  60   0.0000       1.025632        27.9089 
  61   0.0000       1.058521        28.8038 
  62   0.0000       1.084358        29.5069 
  63   0.0000       1.096322        29.8324 
  64   0.0000       1.102399        29.9978 
  65   0.0000       1.130910        30.7736 
  66   0.0000       1.180076        32.1115 
  67   0.0000       1.199681        32.6450 
  68   0.0000       1.226107        33.3641 
  69   0.0000       1.252982        34.0954 
  70   0.0000       1.263675        34.3863 
  71   0.0000       1.271645        34.6032 
  72   0.0000       1.292440        35.1691 
  73   0.0000       1.341635        36.5077 
  74   0.0000       1.394212        37.9384 
  75   0.0000       1.448690        39.4209 
  76   0.0000       1.482357        40.3370 
  77   0.0000       1.536865        41.8202 
  78   0.0000       1.565392        42.5965 
  79   0.0000       1.591188        43.2984 
  80   0.0000       1.635218        44.4965 
  81   0.0000       1.638851        44.5954 
  82   0.0000       1.687717        45.9251 
  83   0.0000       1.753695        47.7205 
  84   0.0000       1.834872        49.9294 
  85   0.0000       1.857236        50.5380 
  86   0.0000       1.897351        51.6295 
  87   0.0000       1.999719        54.4151 
  88   0.0000       2.088861        56.8408 
  89   0.0000       2.101641        57.1886 
  90   0.0000       2.145011        58.3687 
  91   0.0000       2.249782        61.2197 
  92   0.0000       2.287425        62.2440 
  93   0.0000       2.338981        63.6469 
  94   0.0000       2.344317        63.7921 
  95   0.0000       2.407817        65.5200 
  96   0.0000       2.414579        65.7040 
  97   0.0000       2.450818        66.6901 
  98   0.0000       2.464325        67.0577 
  99   0.0000       2.497070        67.9487 
 100   0.0000       2.502906        68.1075 
 101   0.0000       2.561393        69.6990 
 102   0.0000       2.569566        69.9214 
 103   0.0000       2.641572        71.8808 
 104   0.0000       2.671798        72.7033 
 105   0.0000       2.710236        73.7493 
 106   0.0000       2.729172        74.2646 
 107   0.0000       2.755743        74.9876 
 108   0.0000       2.757726        75.0415 
 109   0.0000       2.816845        76.6503 
 110   0.0000       2.847676        77.4892 
 111   0.0000       2.888404        78.5975 
 112   0.0000       2.900826        78.9355 
 113   0.0000       3.012823        81.9831 
 114   0.0000       3.037722        82.6606 
 115   0.0000       3.182919        86.6116 
 116   0.0000       3.690421       100.4215 
 117   0.0000       3.790863       103.1546 
 118   0.0000       3.828520       104.1793 
 119   0.0000       4.036797       109.8468 
 120   0.0000       4.058566       110.4392 
 121   0.0000       4.074939       110.8847 
 122   0.0000       4.170016       113.4719 
 123   0.0000       4.197173       114.2109 
 124   0.0000       4.202010       114.3425 
 125   0.0000       4.244950       115.5110 
 126   0.0000       4.264740       116.0495 
 127   0.0000       4.309084       117.2561 
 128   0.0000       4.326567       117.7319 
 129   0.0000       4.384788       119.3161 
 130   0.0000       4.446973       121.0083 
 131   0.0000       4.458996       121.3354 
 132   0.0000       4.469306       121.6160 
 133   0.0000       4.508029       122.6697 
 134   0.0000       4.515218       122.8653 
 135   0.0000       4.568069       124.3035 
 136   0.0000       4.627239       125.9136 
 137   0.0000       4.687871       127.5635 
 138   0.0000       4.769299       129.7792 
 139   0.0000       4.836982       131.6210 
 140   0.0000       4.914649       133.7344 
 141   0.0000       5.024214       136.7158 
 142   0.0000       5.094134       138.6184 
 143   0.0000       5.153847       140.2433 
 144   0.0000       5.188992       141.1996 
 145   0.0000       5.215741       141.9275 
 146   0.0000       5.262274       143.1938 
 147   0.0000       5.299878       144.2170 
 148   0.0000       5.326953       144.9538 
 149   0.0000       5.391677       146.7150 
 150   0.0000       5.531622       150.5231 
 151   0.0000       5.624048       153.0381 
 152   0.0000       5.672654       154.3608 
 153   0.0000       5.822281       158.4323 
 154   0.0000       6.193720       168.5397 
 155   0.0000       6.337407       172.4496 
 156   0.0000       6.526092       177.5840 
 157   0.0000       6.544663       178.0893 
 158   0.0000       6.753533       183.7730 
 159   0.0000       6.811387       185.3473 
 160   0.0000       6.915619       188.1836 
 161   0.0000       6.935042       188.7121 
 162   0.0000       7.113345       193.5640 
 163   0.0000       7.162366       194.8979 
 164   0.0000       7.237696       196.9477 
 165   0.0000       7.260786       197.5760 
 166   0.0000       7.263883       197.6603 
 167   0.0000       7.309679       198.9065 
 168   0.0000       7.352393       200.0688 
 169   0.0000       7.367463       200.4789 
 170   0.0000       7.394739       201.2211 
 171   0.0000       7.418460       201.8666 
 172   0.0000       7.464812       203.1279 
 173   0.0000       7.525790       204.7872 
 174   0.0000       7.623298       207.4405 
 175   0.0000       7.731771       210.3922 
 176   0.0000       7.906252       215.1401 
 177   0.0000       7.923776       215.6169 
 178   0.0000       8.014037       218.0730 
 179   0.0000       8.089799       220.1346 
 180   0.0000       8.834001       240.3854 
 181   0.0000       8.858825       241.0609 
 182   0.0000      15.593321       424.3158 
 183   0.0000      16.474129       448.2838 

                    ********************************
                    * MULLIKEN POPULATION ANALYSIS *
                    ********************************

-----------------------
MULLIKEN ATOMIC CHARGES
-----------------------
   0 H :    0.258754
   1 O :   -0.636572
   2 H :    0.327029
   3 H :    0.237223
   4 O :   -0.430773
   5 H :    0.244339
Sum of atomic charges:    0.0000000

--------------------------------
MULLIKEN REDUCED ORBITAL CHARGES
--------------------------------
  0 H s       :     0.632013  s :     0.632013
      pz      :     0.032823  p :     0.088207
      px      :     0.023509
      py      :     0.031875
      dz2     :     0.006172  d :     0.021027
      dxz     :     0.002958
      dyz     :     0.003320
      dx2y2   :     0.004995
      dxy     :     0.003582
  1 O s       :     3.872479  s :     3.872479
      pz      :     1.566775  p :     4.737078
      px      :     1.582056
      py      :     1.588247
      dz2     :     0.001040  d :     0.026090
      dxz     :     0.012013
      dyz     :     0.002794
      dx2y2   :     0.002697
      dxy     :     0.007545
      f0      :     0.000200  f :     0.000925
      f+1     :     0.000042
      f-1     :     0.000104
      f+2     :     0.000009
      f-2     :     0.000343
      f+3     :     0.000019
      f-3     :     0.000209
  2 H s       :     0.552955  s :     0.552955
      pz      :     0.031032  p :     0.078793
      px      :     0.012549
      py      :     0.035212
      dz2     :     0.015254  d :     0.041224
      dxz     :     0.003494
      dyz     :     0.006378
      dx2y2   :     0.009958
      dxy     :     0.006139
  3 H s       :     0.630382  s :     0.630382
      pz      :     0.042316  p :     0.104962
      px      :     0.030875
      py      :     0.031771
      dz2     :     0.005535  d :     0.027432
      dxz     :     0.004707
      dyz     :     0.004505
      dx2y2   :     0.007003
      dxy     :     0.005681
  4 O s       :     3.867529  s :     3.867529
      pz      :     1.765546  p :     4.556924
      px      :     1.478733
      py      :     1.312645
      dz2     :     0.001498  d :     0.005785
      dxz     :    -0.000997
      dyz     :    -0.001204
      dx2y2   :     0.000962
      dxy     :     0.005525
      f0      :     0.000262  f :     0.000534
      f+1     :     0.000076
      f-1     :     0.000151
      f+2     :    -0.000028
      f-2     :     0.000063
      f+3     :    -0.000043
      f-3     :     0.000053
  5 H s       :     0.627332  s :     0.627332
      pz      :     0.047510  p :     0.102257
      px      :     0.031034
      py      :     0.023713
      dz2     :     0.003204  d :     0.026072
      dxz     :     0.003699
      dyz     :     0.006723
      dx2y2   :     0.006300
      dxy     :     0.006146


                     *******************************
                     * LOEWDIN POPULATION ANALYSIS *
                     *******************************

----------------------
LOEWDIN ATOMIC CHARGES
----------------------
   0 H :   -0.477784
   1 O :    0.977149
   2 H :   -0.727622
   3 H :   -0.437639
   4 O :    1.083698
   5 H :   -0.417802

-------------------------------
LOEWDIN REDUCED ORBITAL CHARGES
-------------------------------
  0 H s       :     0.572789  s :     0.572789
      pz      :     0.159544  p :     0.538251
      px      :     0.194277
      py      :     0.184431
      dz2     :     0.066780  d :     0.366744
      dxz     :     0.062735
      dyz     :     0.068247
      dx2y2   :     0.090508
      dxy     :     0.078475
  1 O s       :     3.015782  s :     3.015782
      pz      :     1.285487  p :     3.923951
      px      :     1.338342
      py      :     1.300122
      dz2     :     0.003208  d :     0.070217
      dxz     :     0.025551
      dyz     :     0.018393
      dx2y2   :     0.001564
      dxy     :     0.021501
      f0      :     0.001995  f :     0.012901
      f+1     :     0.001529
      f-1     :     0.000526
      f+2     :     0.000649
      f-2     :     0.004884
      f+3     :     0.001125
      f-3     :     0.002193
  2 H s       :     0.547756  s :     0.547756
      pz      :     0.237139  p :     0.647620
      px      :     0.234466
      py      :     0.176016
      dz2     :     0.120505  d :     0.532246
      dxz     :     0.138907
      dyz     :     0.101719
      dx2y2   :     0.087640
      dxy     :     0.083474
  3 H s       :     0.561294  s :     0.561294
      pz      :     0.163883  p :     0.518441
      px      :     0.187474
      py      :     0.167083
      dz2     :     0.048984  d :     0.357904
      dxz     :     0.063624
      dyz     :     0.062100
      dx2y2   :     0.107310
      dxy     :     0.075886
  4 O s       :     2.965345  s :     2.965345
      pz      :     1.369153  p :     3.839541
      px      :     1.285190
      py      :     1.185198
      dz2     :     0.008389  d :     0.093225
      dxz     :     0.020259
      dyz     :     0.011957
      dx2y2   :     0.007308
      dxy     :     0.045311
      f0      :     0.002490  f :     0.018190
      f+1     :     0.001261
      f-1     :     0.001394
      f+2     :     0.000770
      f-2     :     0.004254
      f+3     :     0.004869
      f-3     :     0.003152
  5 H s       :     0.553206  s :     0.553206
      pz      :     0.148740  p :     0.509854
      px      :     0.168419
      py      :     0.192695
      dz2     :     0.041313  d :     0.354743
      dxz     :     0.040299
      dyz     :     0.078886
      dx2y2   :     0.101438
      dxy     :     0.092807


                      *****************************
                      * MAYER POPULATION ANALYSIS *
                      *****************************

  NA   - Mulliken gross atomic population
  ZA   - Total nuclear charge
  QA   - Mulliken gross atomic charge
  VA   - Mayer's total valence
  BVA  - Mayer's bonded valence
  FA   - Mayer's free valence

  ATOM       NA         ZA         QA         VA         BVA        FA
  0 H      0.7412     1.0000     0.2588     1.0153     1.0153    -0.0000
  1 O      8.6366     8.0000    -0.6366     1.8018     1.8018    -0.0000
  2 H      0.6730     1.0000     0.3270     0.9672     0.9672    -0.0000
  3 H      0.7628     1.0000     0.2372     1.0374     1.0374     0.0000
  4 O      8.4308     8.0000    -0.4308     2.0114     2.0114     0.0000
  5 H      0.7557     1.0000     0.2443     1.0269     1.0269     0.0000

  Mayer bond orders larger than 0.100000
B(  0-H ,  1-O ) :   0.9707 B(  1-O ,  2-H ) :   0.8854 B(  3-H ,  4-O ) :   1.0058 
B(  4-O ,  5-H ) :   0.9941 

-------
TIMINGS
-------

Total SCF time: 0 days 0 hours 0 min 7 sec 

Total time                  ....       7.692 sec
Sum of individual times     ....       7.105 sec  ( 92.4%)

Fock matrix formation       ....       6.190 sec  ( 80.5%)
Diagonalization             ....       0.117 sec  (  1.5%)
Density matrix formation    ....       0.005 sec  (  0.1%)
Population analysis         ....       0.031 sec  (  0.4%)
Initial guess               ....       0.109 sec  (  1.4%)
Orbital Transformation      ....       0.000 sec  (  0.0%)
Orbital Orthonormalization  ....       0.000 sec  (  0.0%)
DIIS solution               ....       0.079 sec  (  1.0%)
SOSCF solution              ....       0.048 sec  (  0.6%)

Maximum memory used throughout the entire SCF-calculation: 229.7 MB


           ************************************************************
           *        Program running with 10 parallel MPI-processes    *
           *              working on a common directory               *
           ************************************************************


--------------------------------------------------------------------------------
                             ORCA-MATRIX DRIVEN CI
--------------------------------------------------------------------------------


Wavefunction type
-----------------
Correlation treatment                      ...      CCSD     
Single excitations                         ... ON
Orbital optimization                       ... OFF
Calculation of Z vector                    ... OFF
Calculation of Brueckner orbitals          ... OFF
Perturbative triple excitations            ... ON
Calculation of F12 correction              ... OFF
Frozen core treatment                      ... chemical core (4 el)
Reference Wavefunction                     ... RHF
  Internal Orbitals:     2 ...    9 (  8 MO's/ 16 electrons)
  Virtual  Orbitals:    10 ...  183 (174 MO's              )
Number of AO's                             ...    184
Number of electrons                        ...     20
Number of correlated electrons             ...     16

Algorithmic settings
--------------------
Integral transformation                    ... All integrals via the RI transformation
K(C) Formation                             ... RI-DLPNO
   PNO-Integral Storage                    ... ON DISK
   PNO occupation number cut-off           ... 1.000e-07
   Singles PNO occupation number cut-off   ... 3.000e-09
   PNO Mulliken prescreening cut-off       ... 1.000e-03
   Domain cut-off (Mulliken population)    ... 1.000e-03
   PNO Normalization                       ...    1
Maximum number of iterations               ...        50
Convergence tolerance (max. residuum)      ... 2.500e-05
Level shift for amplitude update           ... 2.000e-01
Maximum number of DIIS vectors             ...         7
DIIS turned on at iteration                ...         0
Damping before turning on DIIS             ...     0.500
Damping after turning on DIIS              ...     0.000
Pair specific amplitude update             ... OFF
Natural orbital iterations                 ... OFF
Perturbative natural orbital generation    ... OFF
Printlevel                                 ... 2

Singles Fock matrix elements calculated using PNOs.

Memory handling:
----------------
Maximum memory for working arrays          ...   2000 MB
Data storage in matrix containers          ... UNCOMPRESSED
Data type for integral storage             ... DOUBLE
In-Core Storage of quantities:
   Amplitudes+Sigma Vector      ... NO
   J+K operators                ... NO
   DIIS vectors                 ... NO
   3-external integrals         ... NO
   4-external integrals         ... NO

Localization treatment:
-----------------------
Localization option                        ...    6
Localization threshhold                    ... -1.0e+00
Using relative localization threshhold     ... 1.0e-08
Neglect threshold for strong pairs         ... 1.000e-05 Eh
Prescreening threshold for very weak pairs ... 1.000e-07 Eh

Initializing the integral package          ... done
Localizing the valence orbitals
------------------------------------------------------------------------------
                           ORCA ORBITAL LOCALIZATION
------------------------------------------------------------------------------

Input orbitals are from                  ... cluster_dlpno_SP.gbw
Output orbitals are to                   ... cluster_dlpno_SP.loc
Max. number of iterations                ... 128
Localizations seeded randomly            ... off
Convergence tolerance                    ... 1.000e-06
Using relative localization threshhold   ... 1.000e-08
Treshold for strong local MOs            ... 9.500e-01
Treshold for bond MOs                    ... 8.500e-01
Operator                                 ... 0
Orbital range for localization           ... 2 to 9
Localization criterion                   ... FOSTER-BOYS (AUGMENTED HESSIAN)
Doing the dipole integrals     ... o.k.
Initial value of the localization sum :  2566.760826
ITERATION   0 : L= 2570.5842592304 DL=  3.82e+00 (AVERGE_DL)=    0.3695283357 
ITERATION   1 : L= 2571.4683065457 DL=  8.84e-01 (AVERGE_DL)=    0.1776882619 
ITERATION   2 : L= 2571.5804071372 DL=  1.12e-01 (AVERGE_DL)=    0.0632739485 
ITERATION   3 : L= 2571.5924301180 DL=  1.20e-02 (AVERGE_DL)=    0.0207217801 
ITERATION   4 : L= 2571.5929679922 DL=  5.38e-04 (AVERGE_DL)=    0.0043828978 
ITERATION   5 : L= 2571.5930072631 DL=  3.93e-05 (AVERGE_DL)=    0.0011842840 
ITERATION   6 : L= 2571.5930104886 DL=  3.23e-06 (AVERGE_DL)=    0.0003394092 
ITERATION   7 : L= 2571.5930107738 DL=  2.85e-07 (AVERGE_DL)=    0.0001009284 
LOCALIZATION SUM CONVERGED

------------------------------------------------------
AUGMENTED HESSIAN OPTIMIZATION OF FOSTER-BOYS ORBITALS
------------------------------------------------------

Spin operator:           0
Orbital window:          2 to 9
Number of iterations:    128
Gradient tolerance:      1.000e-06
Number of pairs:         28
Davidson threshold:      2000
Diagonalization method:  LAPACK
Iter:    0   L: 2571.5930107738   Grad. norm: 4.623772e-04
   *** Likely close to a maximum now. ***
       Augmented Hessian eigenvalues:  5.53e-08 -1.39e+00 -1.43e+00 -3.03e+00 ... 
Iter:    1   L: 2571.5930108015   Grad. norm: 2.487956e-08
LOCALIZATION HAS CONVERGED.

Eigenvalues of the Hessian:
  0 -1.389e+00
  1 -1.427e+00
  2 -3.035e+00
  3 -3.096e+00
  4 -4.315e+00
  5 -4.480e+00
  6 -5.374e+00
  7 -5.413e+00
  8 -7.095e+00
  9 -7.190e+00
    ...


--------------------------------------------------------------------------------
                    LOCALIZED MOLECULAR ORBITAL COMPOSITIONS
--------------------------------------------------------------------------------

The Mulliken populations for each LMO on each atom are computed
The LMO`s will be ordered according to atom index and type
  (A) Strongly localized MO`s have populations of >=0.950 on one atom
  (B) Two center bond orbitals have populations of >=0.850 on two atoms
  (C) Other MO`s are considered to be `delocalized`

FOUND  -   4 strongly local MO`s
       -   4 two center bond MO`s
       -   0 significantly delocalized MO`s

Rather strongly localized orbitals:
MO   5:   4O  -   0.966028
MO   4:   4O  -   1.006065
MO   3:   1O  -   1.005148
MO   2:   1O  -   0.993630
Bond-like localized orbitals:
MO   9:   5H  -   0.367415  and   4O  -   0.630192
MO   8:   4O  -   0.627766  and   3H  -   0.368787
MO   7:   2H  -   0.321197  and   1O  -   0.690467
MO   6:   1O  -   0.636687  and   0H  -   0.359272
Localized MO's were stored in: cluster_dlpno_SP.loc

Localizing the core orbitals
------------------------------------------------------------------------------
                           ORCA ORBITAL LOCALIZATION
------------------------------------------------------------------------------

Input orbitals are from                  ... cluster_dlpno_SP.loc
Output orbitals are to                   ... cluster_dlpno_SP.loc
Max. number of iterations                ... 128
Localizations seeded randomly            ... off
Convergence tolerance                    ... 1.000e-06
Using relative localization threshhold   ... 1.000e-08
Treshold for strong local MOs            ... 9.500e-01
Treshold for bond MOs                    ... 8.500e-01
Operator                                 ... 0
Orbital range for localization           ... 0 to 1
Localization criterion                   ... FOSTER-BOYS (AUGMENTED HESSIAN)
Doing the dipole integrals     ... o.k.
Initial value of the localization sum :   651.088193
ITERATION   0 : L=  651.0881927983 DL=  1.21e-08 (AVERGE_DL)=    0.0001099337 
LOCALIZATION SUM CONVERGED

------------------------------------------------------
AUGMENTED HESSIAN OPTIMIZATION OF FOSTER-BOYS ORBITALS
------------------------------------------------------

Spin operator:           0
Orbital window:          0 to 1
Number of iterations:    128
Gradient tolerance:      1.000e-06
Number of pairs:         1
Davidson threshold:      2000
Diagonalization method:  LAPACK
Iter:    0   L: 651.0881927983   Grad. norm: 1.470407e-17
   *** Likely close to a maximum now. ***
       Augmented Hessian eigenvalues:  2.00e-36 -1.08e+02
Iter:    1   L: 651.0881927983   Grad. norm: 0.000000e+00
LOCALIZATION HAS CONVERGED.

Eigenvalues of the Hessian:
  0 -1.079e+02


--------------------------------------------------------------------------------
                    LOCALIZED MOLECULAR ORBITAL COMPOSITIONS
--------------------------------------------------------------------------------

The Mulliken populations for each LMO on each atom are computed
The LMO`s will be ordered according to atom index and type
  (A) Strongly localized MO`s have populations of >=0.950 on one atom
  (B) Two center bond orbitals have populations of >=0.850 on two atoms
  (C) Other MO`s are considered to be `delocalized`

FOUND  -   2 strongly local MO`s
       -   0 two center bond MO`s
       -   0 significantly delocalized MO`s

Rather strongly localized orbitals:
MO   1:   4O  -   0.999388
MO   0:   1O  -   0.999258
Localized MO's were stored in: cluster_dlpno_SP.loc

Warning: reference  - re-canonicalizations have been set to INT 1 VIRT 1
Warning: internal orbitals are localized - no re-canonicalization of internal orbitals
Warning: UsePNO is turned on - no re-canonicalization of internal and virtual orbitals

--------------------------
CLOSED-SHELL FOCK OPERATOR
--------------------------

Restoring SHARK [2] ... ok
Time needed for Fock operator              ...            1.039 sec
Reference energy                           ...   -152.174584070

--------------
DLPNO SETTINGS (2015 fully linear scaling implementation)
--------------

TCutMKN:           1.000e-03
TCutPAO:           1.000e-03
TCutPNO:           1.000e-07
TCutPNOSingles:    3.000e-09
TCutEN:            9.700e-01
TCutPAOExt:        1.000e-01
TCutPairs:         1.000e-05
TCutPre:           1.000e-07
TCutOSV:           1.000e-06
TCutDOij:          1.000e-05
TCutDO:            5.000e-03
TCutC:             1.000e-04
TCutCPAO:          1.000e-03
TCutCMO:           1.000e-03
TScaleDOMP2PreScr: 2.000e+00
TScaleMKNMP2PreScr:1.000e+01
TScalePNOMP2PreScr:1.000e+00
PAO overlap thresh 1.000e-08
Using PNOs for Singles Fock computation
Use new domains
Use fully linear algorithm
TCutTNO:           1.000e-09
TCutMP2Pairs:      1.000e-06
TCutDOStrong:      2.000e-03
TCutMKNStrong:     1.000e-02
TCutMKNWeak:       1.000e-01
TCutDOWeak:        4.000e-03
NTCutTNO:          1

--------------------------
Mulliken population of the LMOs            ... ok
Performing proximity check                 ... No problems found
Calculating differential overlap integrals ... ok

--------------------------
ELECTRON PAIR PRESCREENING
--------------------------

Dipole-based pair screening          .... used

   TCutDOij = 1.000000e-05
   TCutPre  = 1.000000e-07
   .... Finished loop over pairs
Total time spent in the prescreening                  ...     0.003 sec
sum of pair energies estimated for screened out pairs ...       0.000000000000 Eh
Thresholds for map construction and integral transformation for crude MP2:
   TCutMKN                    ...     1.0e-02
   TCutDO                     ...     1.0e-02
   TCutPairs                  ...     1.0e-05
   TCutPNO_CrudeMP2           ...     1.0e-07
   TCutPNOSingles_CrudeMP2    ...     3.0e-09
--------------------------------
LOCAL RI TRANSFORMATION (IAVPAO)
--------------------------------

Orbital window:       2 to 9
Number of PAOs:     184
Basis functions:    184 (64 shells)
Aux. functions:     396 (112 shells)
Use SHARK:           on

Processing maps (0.0 sec)
Average map sizes:
   Aux shells -> MOs               8.0
   Aux shells -> PAOs            184.0
   MOs        -> AO shells        64.0
   PAOs       -> AO shells        64.0

Calculating integrals (0.2 sec, 4.452 MB)
Sorting integrals (0.0 sec, 4.447 MB)
Total time for the integral transformation: 0.2 sec
--------------------------------
INITIAL GUESS AND PNO GENERATION
--------------------------------

PNO truncation parameters                   .... 
    PAOOverlapThresh   =        1.000e-08

    TCutPairs          =        1.000e-05
    TCutPNO            =        1.000e-07
    TCutPNOSingles     =        3.000e-09
    TCutMP2Pairs       =        1.000e-06
    TCutMKN            =        1.000e-02
    TCutDO             =        1.000e-02

Pair selection                          .... not used
Type of local MP2 treatment                 .... semi-local MP2
Strategy for PNO selection                  .... occupation number selection
Pair density normalization                  .... MP2 norm
Spin component scaling                      .... not used

   .... Finished loop over pairs
Making pair pair interaction lists          ... done

                       ===========================
                         36 OF   36 PAIRS ARE KEPT CCSD PAIRS
                          0 OF   36 PAIRS ARE KEPT MP2 PAIRS FOR (T)
                          0 OF   36 PAIRS ARE SKIPPED
                       ===========================

Total time spent in the initial guess                 ...     0.129 sec
SL-MP2 correlation energy (all non-screened pairs)    ...      -0.525627712274 Eh

Initial PNO correlation energy                        ...      -0.525460323383 Eh
sum of pair energies prescreened and skipped MP2 pairs...       0.000000000000 Eh
sum of pair energies of crude MP2 skipped pairs only  ...       0.000000000000 Eh
sum of MP2 pair energies for pairs that were not kept ...       0.000000000000 Eh
sum of PNO error estimates for the kept pairs         ...      -0.000167388891 Eh
                                                          --------------------
sum of all corrections                                         -0.000167388891
Initial total correlation energy                               -0.525627712274
Thresholds for map construction and integral transformation for fine MP2 and CCSD(T) calculation:
   TCutMKN   ...     1.0e-03
   TCutDO    ...     5.0e-03
   TCutPairs ...     1.0e-05
   TCutCMO   ...     1.0e-03
   TCutCPAO  ...     1.0e-03

Thresholds for map construction and integral transformation for strong Triples:
   TCutMKN   ...     1.0e-02
   TCutDO    ...     1.0e-02
   TCutCMO   ...     1.0e-03
   TCutCPAO  ...     1.0e-03

Thresholds for map construction and integral transformation for weak Triples:
   TCutMKN   ...     1.0e-01
   TCutDO    ...     2.0e-02
   TCutCMO   ...     1.0e-03
   TCutCPAO  ...     1.0e-03

--------------------------------
LOCAL RI TRANSFORMATION (IAVPAO)
--------------------------------

Orbital window:       2 to 9
Number of PAOs:     184
Basis functions:    184 (64 shells)
Aux. functions:     396 (112 shells)
Use SHARK:           on

Processing maps (0.0 sec)
Average map sizes:
   Aux shells -> MOs               8.0
   Aux shells -> PAOs            184.0
   MOs        -> AO shells        64.0
   PAOs       -> AO shells        64.0

Calculating integrals (0.2 sec, 4.452 MB)
Sorting integrals (0.1 sec, 4.447 MB)
Total time for the integral transformation: 0.3 sec
--------------------------------
INITIAL GUESS AND PNO GENERATION
--------------------------------

PNO truncation parameters                   .... 
    ScaleTCutPNO       =        1.000e-02
    PAOOverlapThresh   =        1.000e-08

    TCutPairs          =        1.000e-05
    TCutPNO            =        1.000e-07
    TCutPNOSingles     =        3.000e-09
    TCutMP2Pairs       =        1.000e-06
    TCutMKN            =        1.000e-03
    TCutDO             =        5.000e-03

Pair selection                          .... not used
Type of local MP2 treatment                 .... full local PMP2
Strategy for PNO selection                  .... occupation number selection
Pair density normalization                  .... MP2 norm
Spin component scaling                      .... not used

PASS-1: Formation of initial guess LMP2 amplitudes
Initial amplitudes guess done. Entering LMP2 iteration loop:
   Max. no of iterations          ...  50
   Energy convergence tolerance   ...    1.0e-07
   Residual convergence tolerance ...    5.0e-07
   Fock matrix cutoff             ...    1.0e-05 Eh
   DIIS convergence acceleration parameters:
        Max # vectors in DIIS     ... 7
        Start iteration of DIIS   ... 0
        Levelshift                ... 2.000e-01
        Damping factor 1          ... 5.000e-01
        Damping factor 2          ... 1.000e+00
   L-MP2 PNO cut-off              ...   1.0e-09
   L-MP2 PNO cut-off (core)       ...   1.0e-11
                           *** Turning on DIIS ***
LMP2-Iter=   0:  ELMP2= -0.535964905415  DE=   1.0e-02 RMAX=   4.7e-03
LMP2-Iter=   1:  ELMP2= -0.541326214425  DE=   5.4e-03 RMAX=   1.9e-03
LMP2-Iter=   2:  ELMP2= -0.542096582751  DE=   7.7e-04 RMAX=   4.0e-04
LMP2-Iter=   3:  ELMP2= -0.542194967436  DE=   9.8e-05 RMAX=   1.3e-04
LMP2-Iter=   4:  ELMP2= -0.542202743063  DE=   7.8e-06 RMAX=   1.5e-05
LMP2-Iter=   5:  ELMP2= -0.542202641587  DE=   1.0e-07 RMAX=   5.2e-06
LMP2-Iter=   6:  ELMP2= -0.542202608217  DE=   3.3e-08 RMAX=   5.4e-07
LMP2-Iter=   7:  ELMP2= -0.542202600818  DE=   7.4e-09 RMAX=   1.5e-07
LMP2-Iter=   8:  ELMP2= -0.542202603809  DE=   3.0e-09 RMAX=   2.3e-08 => CONVERGED
PASS-2: Formation of Pair natural orbitals
   .... Finished loop over pairs

 PNO Occupation Number Statistics: 
  | Av. % of trace(Dij) retained        ...  99.588592192519
  | sigma^2 in % of trace(Dij) retained ...   3.23e-01
  | Av. % of trace(Di) retained         ...  99.999844797483
  | sigma^2 in % of trace(Di) retained  ...   2.01e-09
 Distributions of % trace(Dij) recovered:
  |       >= 99.9  ...    20 ( 55.6 % of all pairs)
  |   [90.0, 99.0) ...     9 ( 25.0 % of all pairs)
  |   [99.0, 99.9) ...     7 ( 19.4 % of all pairs)
 Distributions of % trace(Di) recovered :
  |       >= 99.9  ...     8 (100.0 % of all I-pairs )

Making pair pair interaction lists          ... done

                       ===========================
                         36 OF   36 PAIRS ARE KEPT
                       ===========================

Total time spent in the initial guess                 ...     2.177 sec
L-MP2 correlation energy (all non-screened pairs)     ...      -0.542202603809 Eh
L-MP2 PNO error correction                            ...      -0.000002677902 Eh
                                                          --------------------
Initial total L-MP2 energy (non-screened pairs)       ...      -0.542205281710 Eh

Initial PNO correlation energy                        ...      -0.542037705265 Eh
sum of pair energies estimated for screened out pairs ...       0.000000000000 Eh
sum of MP2 pair energies for pairs that were not kept ...       0.000000000000 Eh
sum of PNO error estimates for the kept pairs         ...      -0.000167576445 Eh
                                                          --------------------
sum of all corrections                                         -0.000167576445
Initial total correlation energy                               -0.542205281710
Thresholds for map construction and integral transformation for fine MP2 and CCSD(T) calculation:
   TCutMKN   ...     1.0e-03
   TCutDO    ...     5.0e-03
   TCutPairs ...     1.0e-05
   TCutCMO   ...     1.0e-03
   TCutCPAO  ...     1.0e-03

Time for aux screen maps:            0.000
Time for maps after fine MP2:            0.002
-----------------------------
LOCAL RI TRANSFORMATION (IJV)
-----------------------------

Orbital window:       2 to 9
Basis functions:    184 (64 shells)
Aux. functions:     396 (112 shells)
Use SHARK:           on

Processing maps (0.0 sec)
Average map sizes:
   Aux shells -> MOs(i)            8.0
   Aux shells -> MOs(j)            8.0
   MOs        -> AO shells        64.0

Calculating integrals (0.2 sec, 0.198 MB)
Sorting integrals (0.0 sec, 0.193 MB)
Total time for the integral transformation: 0.2 sec
--------------------------------
LOCAL RI TRANSFORMATION (VABPAO)
--------------------------------

Number of PAOs:     184
Basis functions:    184 (64 shells)
Aux. functions:     396 (112 shells)
Use SHARK:           on

Processing maps (0.0 sec)
Average map sizes:
   Aux shells -> PAOs            184.0
   PAOs       -> AO shells        64.0

Calculating integrals (0.3 sec, 102.292 MB)
Finished


-------------------------------------
Pair Pair Term precalculation with     
RI-(ij|mn) and (im|jn) transformation  
ON THE FLY                             
-------------------------------------

   IBatch   1 (of   1)              ... done (    2.456 sec)
Total EXT                           ...           2.456 sec

---------------------
RI-PNO TRANSFORMATION
---------------------

Total Number of PNOs                   ...  1631
Average number of PNOs per pair        ...    45
Maximal number of PNOs per pair        ...    68
   #pairs with  1 -  5 PNOs   :    0
   #pairs with  6 - 10 PNOs   :    0
   #pairs with 11 - 15 PNOs   :    2
   #pairs with 16 - 20 PNOs   :    6
   #pairs with 21 - 25 PNOs   :    1
   #pairs with 26 - 30 PNOs   :    2
   #pairs with 31 - 35 PNOs   :    2
   #pairs with 36 - 40 PNOs   :    2
   #pairs with 41 - 45 PNOs   :    0
   #pairs with 46 - 50 PNOs   :    1
   #pairs with 51 - 55 PNOs   :    3
   #pairs with 56 - 60 PNOs   :    4
   #pairs with 61 - 65 PNOs   :    8
   #pairs with 66 - 70 PNOs   :    5

Generation of (ij|ab)[P] integrals            ... on
Generation of (ia|bc)[P],(ja|bc)[P] integrals ... on
Storage of 3 and 4 external integrals         ... on
Generation of ALL (ka|bc)[P] integrals        ... on
Keep RI integrals in memory                   ... off

Ibatch:  1 (of  1)
Starting 2-4 index PNO integral generation ... done

Timings:
Total PNO integral transformation time     ...          2.404 sec
Size of the 3-external file                ...        39 MB
Size of the 4-external file                ...       307 MB
Size of the IKJL file                      ...         0 MB
Size of the all 3-external file            ...       159 MB
Size of the 1-external file                ...         0 MB

Making pair/pair overlap matrices          ... done (    0.077 sec)
Size of the pair overlap file              ... 20 MB
Redoing the guess amplitudes               ... done (    0.006 sec)

-------------------------
FINAL STARTUP INFORMATION
-------------------------

E(0)                                       ...   -152.174584070
E(L-MP2)                                   ...     -0.542205282
E(L-MP2) including corrections             ...     -0.542205282
Initial E(tot)                             ...   -152.716789351
<T|T>                                      ...      0.116489626
Number of pairs included                   ... 36
Total number of pairs                      ... 36

------------------------------------------------
                  RHF COUPLED CLUSTER ITERATIONS
------------------------------------------------

Number of PNO amplitudes to be optimized   ...        87937
Number of non-PNO amplitudes               ...      1089936
Untruncated number of regular amplitudes   ...      1089936

Iter       E(tot)           E(Corr)          Delta-E          Residual     Time
  0   -152.700222134     -0.525470488      0.016734794      0.012329585    2.92
                           *** Turning on DIIS ***
  1   -152.711239415     -0.536487769     -0.011017281      0.007274599    2.95
  2   -152.722467464     -0.547715818     -0.011228049      0.002168400    3.01
  3   -152.724604678     -0.549853032     -0.002137214      0.001086190    2.98
  4   -152.725177712     -0.550426066     -0.000573035      0.000398369    2.98
  5   -152.725303800     -0.550552154     -0.000126088      0.000161436    2.95
  6   -152.725330553     -0.550578906     -0.000026753      0.000053005    2.97
  7   -152.725333542     -0.550581896     -0.000002990      0.000023615    2.99
               --- The Coupled-Cluster iterations have converged ---

----------------------
COUPLED CLUSTER ENERGY
----------------------

E(0)                                       ...   -152.174584070
E(CORR)(strong-pairs)                      ...     -0.550581896
E(CORR)(weak-pairs)                        ...     -0.000167576
E(CORR)(corrected)                         ...     -0.550749472
E(TOT)                                     ...   -152.725333542
Singles Norm <S|S>**1/2                    ...      0.038730693  
T1 diagnostic                              ...      0.009682673  

------------------
LARGEST AMPLITUDES
------------------
   6-> 10   6-> 10       0.036581
   9-> 10   9-> 10       0.035014
   7-> 11   7-> 11       0.034734
   8-> 10   8-> 10       0.034348
   5-> 11   5-> 11       0.025299
   6-> 17   6-> 10       0.024620
   6-> 10   6-> 17       0.024620
   8-> 10   8-> 19       0.024143
   8-> 19   8-> 10       0.024143
   2-> 11   2-> 11       0.021912
   9-> 17   9-> 10       0.021661
   9-> 10   9-> 17       0.021661
   8-> 19   8-> 19       0.020994
   6-> 17   6-> 17       0.020614
   3-> 10   3-> 10       0.020366
   9-> 10   9-> 19       0.018840


-------------------------------------------
DLPNO BASED TRIPLES CORRECTION
-------------------------------------------

Singles multiplier          ...  1.000000
TCutTNO                     ... 1.000e-09
TCutMP2Pairs                ... 1.000e-06
TCutDOStrong                ... 1.000e-02
TCutMKNStrong               ... 1.000e-02
TCutDOWeak                  ... 2.000e-02
TCutMKNWeak                 ... 1.000e-01

Fragment selection                          .... not used
Fock matrix occ-virt block is zero --> Setting DT_in_Triples to false.
Number of Triples that are to be computed   ...       112

 . . . . . . . . .
10% done  
20% done  
30% done  
40% done  
50% done  
60% done  
70% done  
80% done  
90% done               (      4.008 sec)
Triples timings:
Total time for T0               ...     4.263 sec
Total time for Iterative (T)    ...     0.000 sec
Total time of overall (T)       ...     4.468 sec

Triples List generation         ...     0.000 sec
TNO generation                  ...     0.238 sec
Pair density generation         ...     0.001 sec
Look up tables                  ...     0.000 sec
Generating 3-index integrals    ...     2.137 sec
  Make 4-ind.int. from 3-ind.int...     0.837 sec
  Projecting amplitudes (D + S) ...     0.137 sec
  Downprojecting integrals      ...     0.000 sec
  Energy contr. (sum over a,b,c)...     0.194 sec
Fitting ET(->0)                 ...     0.000 sec

Everything after 3-index        ...     1.871 sec

Timing details:
 TNO integrals                  ...     2.895 sec
   Reading 3-index integrals    ...     0.065 sec
   Sorting integrals            ...     0.569 sec
       Sorting integrals 1      ...     0.000 sec
       Sorting integrals 2      ...     0.217 sec
       Sorting integrals 3      ...     0.024 sec
       Sorting integrals 4      ...     0.000 sec
       Sorting integrals 5      ...     0.003 sec
       Sorting integrals 6      ...     0.324 sec
   Calculating local VM**-1/2   ...     0.023 sec
   Orthogonal. integrals        ...     0.049 sec
   Multipl. 3-index integrals   ...     2.190 sec
   All concerning IRIab (w/TNO) ...     0.408 sec

 Calculate W0/W1                ...     0.698 sec
 W 3-ext contribution           ...     0.468 sec
 W 3-int contribution           ...     0.065 sec
 Sorting W                      ...     0.147 sec

 V exchange contribution        ...     0.063 sec

 Timings for Triples without generation
     of 3-index integrals       ...     1.871 sec
       0 weak pairs             ...     1.871 sec
       1 weak pair              ...     0.000 sec
       2 weak pairs             ...     0.000 sec
       3 weak pairs             ...     0.000 sec
  Extra time for extrapolation  ...     0.000 sec

Number of Triples   (0, 1, 2, 3 weak pairs; overall):    112       0       0       0  (   112)
Number of Atoms     (0, 1, 2, 3 weak pairs; overall):    6.0     0.0     0.0     0.0  (     6)
Number of PAOs      (0, 1, 2, 3 weak pairs; overall):  184.0     0.0     0.0     0.0  (   184)
Number of AuxFcns   (0, 1, 2, 3 weak pairs; overall):  281.0     0.0     0.0     0.0  (   396)
Number of TNOs      (0, 1, 2, 3 weak pairs         ):   89.8     0.0     0.0     0.0
Aver. Number of NTNO, Atoms, PAOs, AuxFcns / Triples:    112    89.8     6.0   184.0   281.0

Triples Correction (T)                     ...     -0.017281449
Final correlation energy                   ...     -0.568030921
E(CCSD)                                    ...   -152.725333542
E(CCSD(T))                                 ...   -152.742614991



--------------------------------------------------------------------------------
                                    TIMINGS
--------------------------------------------------------------------------------


Total execution time                   ...       39.094 sec

Localization of occupied MO's          ...        0.519 sec (  1.3%)
Fock Matrix Formation                  ...        1.039 sec (  2.7%)
Global overlap, Fock, MKN matrices     ...        0.288 sec (  0.7%)
Differential overlap integrals         ...        0.197 sec (  0.5%)
Organizing maps                        ...        0.016 sec (  0.0%)
RI 3-index integral generations        ...        0.997 sec (  2.6%)
RI-PNO integral transformation         ...        5.040 sec ( 12.9%)
Initial Guess                          ...        2.345 sec (  6.0%)
DIIS Solver                            ...        0.644 sec (  1.6%)
State Vector Update                    ...        0.004 sec (  0.0%)
Sigma-vector construction              ...       23.581 sec ( 60.3%)
  <D|H|D>(0-ext)                       ...        0.389 sec (  1.6% of sigma)
  <D|H|D>(2-ext Fock)                  ...        0.003 sec (  0.0% of sigma)
  <D|H|D>(2-ext)                       ...        0.834 sec (  3.5% of sigma)
  <D|H|D>(4-ext)                       ...        4.369 sec ( 18.5% of sigma)
  <D|H|D>(4-ext-corr)                  ...       12.726 sec ( 54.0% of sigma)
  CCSD doubles correction              ...        0.119 sec (  0.5% of sigma)
  <S|H|S>                              ...        1.015 sec (  4.3% of sigma)
  <S|H|D>(1-ext)                       ...        0.042 sec (  0.2% of sigma)
  <S|H|D>(3-ext)                       ...        0.079 sec (  0.3% of sigma)
  Fock-dressing                        ...        1.504 sec (  6.4% of sigma)
  Singles amplitudes                   ...        0.398 sec (  1.7% of sigma)
  (ik|jl)-dressing                     ...        0.632 sec (  2.7% of sigma)
  (ij|ab),(ia|jb)-dressing             ...        1.107 sec (  4.7% of sigma)
  Pair energies                        ...        0.003 sec (  0.0% of sigma)
Total Time for computing (T)           ...        4.486 sec ( 11.5% of ALL)


Maximum memory used throughout the entire MDCI-calculation: 454.7 MB

-------------------------   --------------------
FINAL SINGLE POINT ENERGY      -152.742614990852
-------------------------   --------------------



--------------------------------------   --------------------
FINAL SINGLE POINT ENERGY (QM/QM2)    -1160.905873452792
--------------------------------------   --------------------


                            ***************************************
                            *     ORCA property calculations      *
                            ***************************************


  WARNING: The energy has been calculated at the MDCI level but the densities
           used in the property calculations are still SCF densities
           MDCI response densities have not been calculated 
           use %mdci Density linearized end
           or  %mdci Density unrelaxed end
           or  %mdci Density orbopt end

                                    ---------------------
                                    Active property flags
                                    ---------------------
   (+) Dipole Moment


------------------------------------------------------------------------------
                       ORCA ELECTRIC PROPERTIES CALCULATION
------------------------------------------------------------------------------

Dipole Moment Calculation                       ... on
Quadrupole Moment Calculation                   ... off
Polarizability Calculation                      ... off
GBWName                                         ... cluster_dlpno_SP.gbw
Electron density                                ... cluster_dlpno_SP.scfp
The origin for moment calculation is the CENTER OF MASS  = (-12.609443, -8.601832 -9.078782)

-------------
DIPOLE MOMENT
-------------
                                X             Y             Z
Electronic contribution:      0.03378      -0.17013      -0.26208
Nuclear contribution   :      1.97785       0.27513      -0.07583
                        -----------------------------------------
Total Dipole Moment    :      2.01163       0.10500      -0.33791
                        -----------------------------------------
Magnitude (a.u.)       :      2.04252
Magnitude (Debye)      :      5.19166



--------------------
Rotational spectrum 
--------------------
 
Rotational constants in cm-1:     6.663722     0.242112     0.239754 
Rotational constants in MHz : 199773.366355  7258.332427  7187.653007 

 Dipole components along the rotational axes: 
x,y,z [a.u.] :     1.498478     1.188007     0.717685 
x,y,z [Debye]:     3.808829     3.019674     1.824209 

 

Timings for individual modules:

Sum of individual times         ...       64.433 sec (=   1.074 min)
GTO integral calculation        ...        2.701 sec (=   0.045 min)   4.2 %
SCF iterations                  ...        8.746 sec (=   0.146 min)  13.6 %
MDCI module                     ...       40.166 sec (=   0.669 min)  62.3 %
XTB module                      ...        6.410 sec (=   0.107 min)   9.9 %
ONIOM_Small energy and gradient ...        0.111 sec (=   0.002 min)   0.2 %
ONIOM_Large energy and gradient ...        6.299 sec (=   0.105 min)   9.8 %
                             ****ORCA TERMINATED NORMALLY****
TOTAL RUN TIME: 0 days 0 hours 1 minutes 3 seconds 135 msec
