
                                 *****************
                                 * O   R   C   A *
                                 *****************

                                            #,                                       
                                            ###                                      
                                            ####                                     
                                            #####                                    
                                            ######                                   
                                           ########,                                 
                                     ,,################,,,,,                         
                               ,,#################################,,                 
                          ,,##########################################,,             
                       ,#########################################, ''#####,          
                    ,#############################################,,   '####,        
                  ,##################################################,,,,####,       
                ,###########''''           ''''###############################       
              ,#####''   ,,,,##########,,,,          '''####'''          '####       
            ,##' ,,,,###########################,,,                        '##       
           ' ,,###''''                  '''############,,,                           
         ,,##''                                '''############,,,,        ,,,,,,###''
      ,#''                                            '''#######################'''  
     '                                                          ''''####''''         
             ,#######,   #######,   ,#######,      ##                                
            ,#'     '#,  ##    ##  ,#'     '#,    #''#        ######   ,####,        
            ##       ##  ##   ,#'  ##            #'  '#       #        #'  '#        
            ##       ##  #######   ##           ,######,      #####,   #    #        
            '#,     ,#'  ##    ##  '#,     ,#' ,#      #,         ##   #,  ,#        
             '#######'   ##     ##  '#######'  #'      '#     #####' # '####'        



                  #######################################################
                  #                        -***-                        #
                  #          Department of theory and spectroscopy      #
                  #    Directorship and core code : Frank Neese         #
                  #        Max Planck Institute fuer Kohlenforschung    #
                  #                Kaiser Wilhelm Platz 1               #
                  #                 D-45470 Muelheim/Ruhr               #
                  #                      Germany                        #
                  #                                                     #
                  #                  All rights reserved                #
                  #                        -***-                        #
                  #######################################################


                         Program Version 5.0.2 -  RELEASE  -


 With contributions from (in alphabetic order):
   Daniel Aravena         : Magnetic Suceptibility
   Michael Atanasov       : Ab Initio Ligand Field Theory (pilot matlab implementation)
   Alexander A. Auer      : GIAO ZORA, VPT2 properties, NMR spectrum
   Ute Becker             : Parallelization
   Giovanni Bistoni       : ED, misc. LED, open-shell LED, HFLD
   Martin Brehm           : Molecular dynamics
   Dmytro Bykov           : SCF Hessian
   Vijay G. Chilkuri      : MRCI spin determinant printing, contributions to CSF-ICE
   Dipayan Datta          : RHF DLPNO-CCSD density
   Achintya Kumar Dutta   : EOM-CC, STEOM-CC
   Dmitry Ganyushin       : Spin-Orbit,Spin-Spin,Magnetic field MRCI
   Miquel Garcia          : C-PCM and meta-GGA Hessian, CC/C-PCM, Gaussian charge scheme
   Yang Guo               : DLPNO-NEVPT2, F12-NEVPT2, CIM, IAO-localization
   Andreas Hansen         : Spin unrestricted coupled pair/coupled cluster methods
   Benjamin Helmich-Paris : MC-RPA, TRAH-SCF, COSX integrals
   Lee Huntington         : MR-EOM, pCC
   Robert Izsak           : Overlap fitted RIJCOSX, COSX-SCS-MP3, EOM
   Marcus Kettner         : VPT2
   Christian Kollmar      : KDIIS, OOCD, Brueckner-CCSD(T), CCSD density, CASPT2, CASPT2-K
   Simone Kossmann        : Meta GGA functionals, TD-DFT gradient, OOMP2, MP2 Hessian
   Martin Krupicka        : Initial AUTO-CI
   Lucas Lang             : DCDCAS
   Marvin Lechner         : AUTO-CI (C++ implementation), FIC-MRCC
   Dagmar Lenk            : GEPOL surface, SMD
   Dimitrios Liakos       : Extrapolation schemes; Compound Job, initial MDCI parallelization
   Dimitrios Manganas     : Further ROCIS development; embedding schemes
   Dimitrios Pantazis     : SARC Basis sets
   Anastasios Papadopoulos: AUTO-CI, single reference methods and gradients
   Taras Petrenko         : DFT Hessian,TD-DFT gradient, ASA, ECA, R-Raman, ABS, FL, XAS/XES, NRVS
   Peter Pinski           : DLPNO-MP2, DLPNO-MP2 Gradient
   Christoph Reimann      : Effective Core Potentials
   Marius Retegan         : Local ZFS, SOC
   Christoph Riplinger    : Optimizer, TS searches, QM/MM, DLPNO-CCSD(T), (RO)-DLPNO pert. Triples
   Tobias Risthaus        : Range-separated hybrids, TD-DFT gradient, RPA, STAB
   Michael Roemelt        : Original ROCIS implementation
   Masaaki Saitow         : Open-shell DLPNO-CCSD energy and density
   Barbara Sandhoefer     : DKH picture change effects
   Avijit Sen             : IP-ROCIS
   Kantharuban Sivalingam : CASSCF convergence, NEVPT2, FIC-MRCI
   Bernardo de Souza      : ESD, SOC TD-DFT
   Georgi Stoychev        : AutoAux, RI-MP2 NMR, DLPNO-MP2 response
   Willem Van den Heuvel  : Paramagnetic NMR
   Boris Wezisla          : Elementary symmetry handling
   Frank Wennmohs         : Technical directorship


 We gratefully acknowledge several colleagues who have allowed us to
 interface, adapt or use parts of their codes:
   Stefan Grimme, W. Hujo, H. Kruse, P. Pracht,  : VdW corrections, initial TS optimization,
                  C. Bannwarth, S. Ehlert          DFT functionals, gCP, sTDA/sTD-DF
   Ed Valeev, F. Pavosevic, A. Kumar             : LibInt (2-el integral package), F12 methods
   Garnet Chan, S. Sharma, J. Yang, R. Olivares  : DMRG
   Ulf Ekstrom                                   : XCFun DFT Library
   Mihaly Kallay                                 : mrcc  (arbitrary order and MRCC methods)
   Jiri Pittner, Ondrej Demel                    : Mk-CCSD
   Frank Weinhold                                : gennbo (NPA and NBO analysis)
   Christopher J. Cramer and Donald G. Truhlar   : smd solvation model
   Lars Goerigk                                  : TD-DFT with DH, B97 family of functionals
   V. Asgeirsson, H. Jonsson                     : NEB implementation
   FAccTs GmbH                                   : IRC, NEB, NEB-TS, DLPNO-Multilevel, CI-OPT
                                                   MM, QMMM, 2- and 3-layer-ONIOM, Crystal-QMMM,
                                                   LR-CPCM, SF, NACMEs, symmetry and pop. for TD-DFT,
                                                   nearIR, NL-DFT gradient (VV10), updates on ESD,
                                                   ML-optimized integration grids
   S Lehtola, MJT Oliveira, MAL Marques          : LibXC Library
   Liviu Ungur et al                             : ANISO software


 Your calculation uses the libint2 library for the computation of 2-el integrals
 For citations please refer to: http://libint.valeyev.net

 Your ORCA version has been built with support for libXC version: 5.1.0
 For citations please refer to: https://tddft.org/programs/libxc/

 This ORCA versions uses:
   CBLAS   interface :  Fast vector & matrix operations
   LAPACKE interface :  Fast linear algebra routines
   SCALAPACK package :  Parallel linear algebra routines
   Shared memory     :  Shared parallel matrices
   BLAS/LAPACK       :  OpenBLAS 0.3.15  USE64BITINT DYNAMIC_ARCH NO_AFFINITY Haswell SINGLE_THREADED
        Core in use  :  Haswell
   Copyright (c) 2011-2014, The OpenBLAS Project


================================================================================

----- Orbital basis set information -----
Your calculation utilizes the basis: aug-cc-pVTZ 
    H, B-Ne : Obtained from the ccRepo (grant-hill.group.shef.ac.uk/ccrepo) Feb. 2017
              R. A. Kendall, T. H. Dunning, Jr., R. J. Harrison, J. Chem. Phys. 96, 6796 (1992)
         He : Obtained from the ccRepo (grant-hill.group.shef.ac.uk/ccrepo) Feb. 2017
              D. E. Woon, T. H. Dunning, Jr., J. Chem. Phys. 100, 2975 (1994)
  Li-Be, Na : Obtained from the ccRepo (grant-hill.group.shef.ac.uk/ccrepo) Feb. 2017
              B. P. Prascher, D. E. Woon, K. A. Peterson, T. H. Dunning, Jr., A. K. Wilson, Theor. Chem. Acc. 128, 69 (2011)
         Mg : Obtained from the Peterson Research Group Website (tyr0.chem.wsu.edu/~kipeters) Feb. 2017
              B. P. Prascher, D. E. Woon, K. A. Peterson, T. H. Dunning, Jr., A. K. Wilson, Theor. Chem. Acc. 128, 69 (2011)
      Al-Ar : Obtained from the ccRepo (grant-hill.group.shef.ac.uk/ccrepo) Feb. 2017
              D. E. Woon, T. H. Dunning, Jr., J. Chem. Phys. 98, 1358 (1993)
      Sc-Zn : Obtained from the ccRepo (grant-hill.group.shef.ac.uk/ccrepo) Feb. 2017
              N. B. Balabanov, K. A. Peterson, J. Chem. Phys. 123, 064107 (2005)
              N. B. Balabanov, K. A. Peterson, J. Chem. Phys. 125, 074110 (2006)
      Ga-Kr : Obtained from the ccRepo (grant-hill.group.shef.ac.uk/ccrepo) Feb. 2017
              A. K. Wilson, D. E. Woon, K. A. Peterson, T. H. Dunning, Jr., J. Chem. Phys. 110, 7667 (1999)
     Ag, Au : Obtained from the Peterson Research Group Website (tyr0.chem.wsu.edu/~kipeters) Feb. 2017
              K. A. Peterson, C. Puzzarini, Theor. Chem. Acc. 114, 283 (2005)

----- AuxC basis set information -----
Your calculation utilizes the auxiliary basis: aug-cc-pVTZ/C 
  H-He, B-F, Al-Ar, Ga-Kr : Obtained from the EMSL Basis Set Exchange (bse.pnl.gov) Feb. 2017
                            F. Weigend, A. Kohn, C. Hattig, J. Chem. Phys. 116, 3175 (2002)
                   Be, Mg : Obtained from the TURBOMOLE 7.0 basis set library
                            C. Haettig, Phys. Chem. Chem. Phys. 7, 59 (2005)
                       Ne : Obtained from the EMSL Basis Set Exchange (bse.pnl.gov) Feb. 2017
                            C. Haettig, Phys. Chem. Chem. Phys. 7, 59 (2005)
                            F. Weigend, A. Kohn, C. Hattig, J. Chem. Phys. 116, 3175 (2002)
                    Sc-Zn : Obtained from the EMSL Basis Set Exchange (bse.pnl.gov) Feb. 2017
                            J. G. Hill, J. A. Platts, J. Chem. Phys. 128, 044104 (2008)

================================================================================
                                        WARNINGS
                       Please study these warnings very carefully!
================================================================================


WARNING: Post HF methods need fully converged wavefunctions
  ===> : Setting SCFConvForced true
         You can overwrite this default with %scf ConvForced false 


WARNING: MDCI localization with Augmented Hessian Foster-Boys
  ===> : Switching off randomization!

INFO   : the flag for use of the SHARK integral package has been found!

================================================================================

----- Orbital basis set information -----
Your calculation utilizes the basis: aug-cc-pVTZ 
    H, B-Ne : Obtained from the ccRepo (grant-hill.group.shef.ac.uk/ccrepo) Feb. 2017
              R. A. Kendall, T. H. Dunning, Jr., R. J. Harrison, J. Chem. Phys. 96, 6796 (1992)
         He : Obtained from the ccRepo (grant-hill.group.shef.ac.uk/ccrepo) Feb. 2017
              D. E. Woon, T. H. Dunning, Jr., J. Chem. Phys. 100, 2975 (1994)
  Li-Be, Na : Obtained from the ccRepo (grant-hill.group.shef.ac.uk/ccrepo) Feb. 2017
              B. P. Prascher, D. E. Woon, K. A. Peterson, T. H. Dunning, Jr., A. K. Wilson, Theor. Chem. Acc. 128, 69 (2011)
         Mg : Obtained from the Peterson Research Group Website (tyr0.chem.wsu.edu/~kipeters) Feb. 2017
              B. P. Prascher, D. E. Woon, K. A. Peterson, T. H. Dunning, Jr., A. K. Wilson, Theor. Chem. Acc. 128, 69 (2011)
      Al-Ar : Obtained from the ccRepo (grant-hill.group.shef.ac.uk/ccrepo) Feb. 2017
              D. E. Woon, T. H. Dunning, Jr., J. Chem. Phys. 98, 1358 (1993)
      Sc-Zn : Obtained from the ccRepo (grant-hill.group.shef.ac.uk/ccrepo) Feb. 2017
              N. B. Balabanov, K. A. Peterson, J. Chem. Phys. 123, 064107 (2005)
              N. B. Balabanov, K. A. Peterson, J. Chem. Phys. 125, 074110 (2006)
      Ga-Kr : Obtained from the ccRepo (grant-hill.group.shef.ac.uk/ccrepo) Feb. 2017
              A. K. Wilson, D. E. Woon, K. A. Peterson, T. H. Dunning, Jr., J. Chem. Phys. 110, 7667 (1999)
     Ag, Au : Obtained from the Peterson Research Group Website (tyr0.chem.wsu.edu/~kipeters) Feb. 2017
              K. A. Peterson, C. Puzzarini, Theor. Chem. Acc. 114, 283 (2005)

----- AuxC basis set information -----
Your calculation utilizes the auxiliary basis: aug-cc-pVTZ/C 
  H-He, B-F, Al-Ar, Ga-Kr : Obtained from the EMSL Basis Set Exchange (bse.pnl.gov) Feb. 2017
                            F. Weigend, A. Kohn, C. Hattig, J. Chem. Phys. 116, 3175 (2002)
                   Be, Mg : Obtained from the TURBOMOLE 7.0 basis set library
                            C. Haettig, Phys. Chem. Chem. Phys. 7, 59 (2005)
                       Ne : Obtained from the EMSL Basis Set Exchange (bse.pnl.gov) Feb. 2017
                            C. Haettig, Phys. Chem. Chem. Phys. 7, 59 (2005)
                            F. Weigend, A. Kohn, C. Hattig, J. Chem. Phys. 116, 3175 (2002)
                    Sc-Zn : Obtained from the EMSL Basis Set Exchange (bse.pnl.gov) Feb. 2017
                            J. G. Hill, J. A. Platts, J. Chem. Phys. 128, 044104 (2008)

================================================================================
                                        WARNINGS
                       Please study these warnings very carefully!
================================================================================


WARNING: MOInp is set but Guess=PModel. MOInp will be ignored!
         To read the initial guess from a file you must also specify
         'MORead' in the simple input or 'Guess MORead' in the %scf block


WARNING: MDCI localization with Augmented Hessian Foster-Boys
  ===> : Switching off randomization!

INFO   : the flag for use of the SHARK integral package has been found!

================================================================================

----- Orbital basis set information -----
Your calculation utilizes the basis: aug-cc-pVTZ 
    H, B-Ne : Obtained from the ccRepo (grant-hill.group.shef.ac.uk/ccrepo) Feb. 2017
              R. A. Kendall, T. H. Dunning, Jr., R. J. Harrison, J. Chem. Phys. 96, 6796 (1992)
         He : Obtained from the ccRepo (grant-hill.group.shef.ac.uk/ccrepo) Feb. 2017
              D. E. Woon, T. H. Dunning, Jr., J. Chem. Phys. 100, 2975 (1994)
  Li-Be, Na : Obtained from the ccRepo (grant-hill.group.shef.ac.uk/ccrepo) Feb. 2017
              B. P. Prascher, D. E. Woon, K. A. Peterson, T. H. Dunning, Jr., A. K. Wilson, Theor. Chem. Acc. 128, 69 (2011)
         Mg : Obtained from the Peterson Research Group Website (tyr0.chem.wsu.edu/~kipeters) Feb. 2017
              B. P. Prascher, D. E. Woon, K. A. Peterson, T. H. Dunning, Jr., A. K. Wilson, Theor. Chem. Acc. 128, 69 (2011)
      Al-Ar : Obtained from the ccRepo (grant-hill.group.shef.ac.uk/ccrepo) Feb. 2017
              D. E. Woon, T. H. Dunning, Jr., J. Chem. Phys. 98, 1358 (1993)
      Sc-Zn : Obtained from the ccRepo (grant-hill.group.shef.ac.uk/ccrepo) Feb. 2017
              N. B. Balabanov, K. A. Peterson, J. Chem. Phys. 123, 064107 (2005)
              N. B. Balabanov, K. A. Peterson, J. Chem. Phys. 125, 074110 (2006)
      Ga-Kr : Obtained from the ccRepo (grant-hill.group.shef.ac.uk/ccrepo) Feb. 2017
              A. K. Wilson, D. E. Woon, K. A. Peterson, T. H. Dunning, Jr., J. Chem. Phys. 110, 7667 (1999)
     Ag, Au : Obtained from the Peterson Research Group Website (tyr0.chem.wsu.edu/~kipeters) Feb. 2017
              K. A. Peterson, C. Puzzarini, Theor. Chem. Acc. 114, 283 (2005)

----- AuxC basis set information -----
Your calculation utilizes the auxiliary basis: aug-cc-pVTZ/C 
  H-He, B-F, Al-Ar, Ga-Kr : Obtained from the EMSL Basis Set Exchange (bse.pnl.gov) Feb. 2017
                            F. Weigend, A. Kohn, C. Hattig, J. Chem. Phys. 116, 3175 (2002)
                   Be, Mg : Obtained from the TURBOMOLE 7.0 basis set library
                            C. Haettig, Phys. Chem. Chem. Phys. 7, 59 (2005)
                       Ne : Obtained from the EMSL Basis Set Exchange (bse.pnl.gov) Feb. 2017
                            C. Haettig, Phys. Chem. Chem. Phys. 7, 59 (2005)
                            F. Weigend, A. Kohn, C. Hattig, J. Chem. Phys. 116, 3175 (2002)
                    Sc-Zn : Obtained from the EMSL Basis Set Exchange (bse.pnl.gov) Feb. 2017
                            J. G. Hill, J. A. Platts, J. Chem. Phys. 128, 044104 (2008)

================================================================================
                                        WARNINGS
                       Please study these warnings very carefully!
================================================================================


WARNING: MOInp is set but Guess=PModel. MOInp will be ignored!
         To read the initial guess from a file you must also specify
         'MORead' in the simple input or 'Guess MORead' in the %scf block


WARNING: MDCI localization with Augmented Hessian Foster-Boys
  ===> : Switching off randomization!

INFO   : the flag for use of the SHARK integral package has been found!

================================================================================

----- Orbital basis set information -----
Your calculation utilizes the basis: aug-cc-pVTZ 
    H, B-Ne : Obtained from the ccRepo (grant-hill.group.shef.ac.uk/ccrepo) Feb. 2017
              R. A. Kendall, T. H. Dunning, Jr., R. J. Harrison, J. Chem. Phys. 96, 6796 (1992)
         He : Obtained from the ccRepo (grant-hill.group.shef.ac.uk/ccrepo) Feb. 2017
              D. E. Woon, T. H. Dunning, Jr., J. Chem. Phys. 100, 2975 (1994)
  Li-Be, Na : Obtained from the ccRepo (grant-hill.group.shef.ac.uk/ccrepo) Feb. 2017
              B. P. Prascher, D. E. Woon, K. A. Peterson, T. H. Dunning, Jr., A. K. Wilson, Theor. Chem. Acc. 128, 69 (2011)
         Mg : Obtained from the Peterson Research Group Website (tyr0.chem.wsu.edu/~kipeters) Feb. 2017
              B. P. Prascher, D. E. Woon, K. A. Peterson, T. H. Dunning, Jr., A. K. Wilson, Theor. Chem. Acc. 128, 69 (2011)
      Al-Ar : Obtained from the ccRepo (grant-hill.group.shef.ac.uk/ccrepo) Feb. 2017
              D. E. Woon, T. H. Dunning, Jr., J. Chem. Phys. 98, 1358 (1993)
      Sc-Zn : Obtained from the ccRepo (grant-hill.group.shef.ac.uk/ccrepo) Feb. 2017
              N. B. Balabanov, K. A. Peterson, J. Chem. Phys. 123, 064107 (2005)
              N. B. Balabanov, K. A. Peterson, J. Chem. Phys. 125, 074110 (2006)
      Ga-Kr : Obtained from the ccRepo (grant-hill.group.shef.ac.uk/ccrepo) Feb. 2017
              A. K. Wilson, D. E. Woon, K. A. Peterson, T. H. Dunning, Jr., J. Chem. Phys. 110, 7667 (1999)
     Ag, Au : Obtained from the Peterson Research Group Website (tyr0.chem.wsu.edu/~kipeters) Feb. 2017
              K. A. Peterson, C. Puzzarini, Theor. Chem. Acc. 114, 283 (2005)

----- AuxC basis set information -----
Your calculation utilizes the auxiliary basis: aug-cc-pVTZ/C 
  H-He, B-F, Al-Ar, Ga-Kr : Obtained from the EMSL Basis Set Exchange (bse.pnl.gov) Feb. 2017
                            F. Weigend, A. Kohn, C. Hattig, J. Chem. Phys. 116, 3175 (2002)
                   Be, Mg : Obtained from the TURBOMOLE 7.0 basis set library
                            C. Haettig, Phys. Chem. Chem. Phys. 7, 59 (2005)
                       Ne : Obtained from the EMSL Basis Set Exchange (bse.pnl.gov) Feb. 2017
                            C. Haettig, Phys. Chem. Chem. Phys. 7, 59 (2005)
                            F. Weigend, A. Kohn, C. Hattig, J. Chem. Phys. 116, 3175 (2002)
                    Sc-Zn : Obtained from the EMSL Basis Set Exchange (bse.pnl.gov) Feb. 2017
                            J. G. Hill, J. A. Platts, J. Chem. Phys. 128, 044104 (2008)

================================================================================
                                        WARNINGS
                       Please study these warnings very carefully!
================================================================================


WARNING: MOInp is set but Guess=PModel. MOInp will be ignored!
         To read the initial guess from a file you must also specify
         'MORead' in the simple input or 'Guess MORead' in the %scf block


WARNING: MDCI localization with Augmented Hessian Foster-Boys
  ===> : Switching off randomization!

INFO   : the flag for use of the SHARK integral package has been found!

================================================================================

----- Orbital basis set information -----
Your calculation utilizes the basis: aug-cc-pVTZ 
    H, B-Ne : Obtained from the ccRepo (grant-hill.group.shef.ac.uk/ccrepo) Feb. 2017
              R. A. Kendall, T. H. Dunning, Jr., R. J. Harrison, J. Chem. Phys. 96, 6796 (1992)
         He : Obtained from the ccRepo (grant-hill.group.shef.ac.uk/ccrepo) Feb. 2017
              D. E. Woon, T. H. Dunning, Jr., J. Chem. Phys. 100, 2975 (1994)
  Li-Be, Na : Obtained from the ccRepo (grant-hill.group.shef.ac.uk/ccrepo) Feb. 2017
              B. P. Prascher, D. E. Woon, K. A. Peterson, T. H. Dunning, Jr., A. K. Wilson, Theor. Chem. Acc. 128, 69 (2011)
         Mg : Obtained from the Peterson Research Group Website (tyr0.chem.wsu.edu/~kipeters) Feb. 2017
              B. P. Prascher, D. E. Woon, K. A. Peterson, T. H. Dunning, Jr., A. K. Wilson, Theor. Chem. Acc. 128, 69 (2011)
      Al-Ar : Obtained from the ccRepo (grant-hill.group.shef.ac.uk/ccrepo) Feb. 2017
              D. E. Woon, T. H. Dunning, Jr., J. Chem. Phys. 98, 1358 (1993)
      Sc-Zn : Obtained from the ccRepo (grant-hill.group.shef.ac.uk/ccrepo) Feb. 2017
              N. B. Balabanov, K. A. Peterson, J. Chem. Phys. 123, 064107 (2005)
              N. B. Balabanov, K. A. Peterson, J. Chem. Phys. 125, 074110 (2006)
      Ga-Kr : Obtained from the ccRepo (grant-hill.group.shef.ac.uk/ccrepo) Feb. 2017
              A. K. Wilson, D. E. Woon, K. A. Peterson, T. H. Dunning, Jr., J. Chem. Phys. 110, 7667 (1999)
     Ag, Au : Obtained from the Peterson Research Group Website (tyr0.chem.wsu.edu/~kipeters) Feb. 2017
              K. A. Peterson, C. Puzzarini, Theor. Chem. Acc. 114, 283 (2005)

----- AuxC basis set information -----
Your calculation utilizes the auxiliary basis: aug-cc-pVTZ/C 
  H-He, B-F, Al-Ar, Ga-Kr : Obtained from the EMSL Basis Set Exchange (bse.pnl.gov) Feb. 2017
                            F. Weigend, A. Kohn, C. Hattig, J. Chem. Phys. 116, 3175 (2002)
                   Be, Mg : Obtained from the TURBOMOLE 7.0 basis set library
                            C. Haettig, Phys. Chem. Chem. Phys. 7, 59 (2005)
                       Ne : Obtained from the EMSL Basis Set Exchange (bse.pnl.gov) Feb. 2017
                            C. Haettig, Phys. Chem. Chem. Phys. 7, 59 (2005)
                            F. Weigend, A. Kohn, C. Hattig, J. Chem. Phys. 116, 3175 (2002)
                    Sc-Zn : Obtained from the EMSL Basis Set Exchange (bse.pnl.gov) Feb. 2017
                            J. G. Hill, J. A. Platts, J. Chem. Phys. 128, 044104 (2008)

================================================================================
                                        WARNINGS
                       Please study these warnings very carefully!
================================================================================


WARNING: MOInp is set but Guess=PModel. MOInp will be ignored!
         To read the initial guess from a file you must also specify
         'MORead' in the simple input or 'Guess MORead' in the %scf block


WARNING: MDCI localization with Augmented Hessian Foster-Boys
  ===> : Switching off randomization!

INFO   : the flag for use of the SHARK integral package has been found!

================================================================================
                                       INPUT FILE
================================================================================
NAME = CP.inp
|  1> #------------------------------------------------------
|  2> # After the Orca calculation you will get two inter-
|  3> # action energies at the end of the output file. The
|  4> # difference is the negative BSSE.
|  5> #
|  6> # The script will set the orbital guess PModel for 
|  7> # jobs 2-5 since Orca will try to use the .gbw-files of
|  8> # the earlier calculations which does not work for jobs
|  9> # 2 and 3 and does not help for jobs 4 and 5.
| 10> #------------------------------------------------------
| 11> #
| 12> #-------------------------
| 13> #     First the dimer
| 14> #-------------------------
| 15> 
| 16> %id "dimer"
| 17> ! DLPNO-CCSD(T) aug-cc-pVTZ aug-cc-pVTZ/C TightPNO
| 18> %maxcore 2000
| 19> %pal
| 20> nprocs 10
| 21> end
| 22> 
| 23> * xyz 0 1
| 24> H    -7.032635    -3.418055    -3.418330 
| 25> O    -7.645069    -4.030457    -3.889770 
| 26> H    -7.088194    -4.461980    -4.563700 
| 27> H    -5.180147    -5.723529    -5.359303 
| 28> O    -5.827192    -5.097073    -5.727833 
| 29> H    -5.285215    -4.305208    -5.942586 
| 30> C    -7.606823    -6.185609    -8.665396 
| 31> O    -6.254148    -6.339586    -8.283159 
| 32> H    -7.714315    -6.601587    -9.665660 
| 33> H    -6.140880    -5.918508    -7.413600 
| 34> H    -8.296331    -6.721365    -8.002909 
| 35> H    -7.917318    -5.135624    -8.705110 
| 36> *
| 37> 
| 38> #--------------------------
| 39> #   Now the fragments at
| 40> #      dimer-geometry 
| 41> #-------------------------
| 42> 
| 43> $new_job
| 44> %id "fragment"
| 45> %scf guess PModel end
| 46> ! DLPNO-CCSD(T) aug-cc-pVTZ aug-cc-pVTZ/C TightPNO
| 47> %maxcore 2000
| 48> %pal
| 49> nprocs 10
| 50> end
| 51> 
| 52> * xyz 0 1
| 53> H    -7.032635    -3.418055    -3.418330 
| 54> O    -7.645069    -4.030457    -3.889770 
| 55> H    -7.088194    -4.461980    -4.563700 
| 56> H    -5.180147    -5.723529    -5.359303 
| 57> O    -5.827192    -5.097073    -5.727833 
| 58> H    -5.285215    -4.305208    -5.942586 
| 59> *
| 60> 
| 61> $new_job
| 62> %id "fragment"
| 63> %scf guess PModel end
| 64> ! DLPNO-CCSD(T) aug-cc-pVTZ aug-cc-pVTZ/C TightPNO
| 65> %maxcore 2000
| 66> %pal
| 67> nprocs 6
| 68> end
| 69> 
| 70> * xyz 0 1
| 71> C    -7.606823    -6.185609    -8.665396 
| 72> O    -6.254148    -6.339586    -8.283159 
| 73> H    -7.714315    -6.601587    -9.665660 
| 74> H    -6.140880    -5.918508    -7.413600 
| 75> H    -8.296331    -6.721365    -8.002909 
| 76> H    -7.917318    -5.135624    -8.705110 
| 77> *
| 78> 
| 79> #--------------------------
| 80> #   Now the fragments at
| 81> #   dimer-geometry with  
| 82> #     the dimer-basis
| 83> #-------------------------
| 84> 
| 85> $new_job
| 86> %id "ghost"
| 87> %scf guess PModel end
| 88> ! DLPNO-CCSD(T) aug-cc-pVTZ aug-cc-pVTZ/C TightPNO
| 89> %maxcore 2000
| 90> %pal
| 91> nprocs 10
| 92> end
| 93> 
| 94> * xyz 0 1
| 95> H         -7.032635    -3.418055    -3.418330 
| 96> O         -7.645069    -4.030457    -3.889770 
| 97> H         -7.088194    -4.461980    -4.563700 
| 98> H         -5.180147    -5.723529    -5.359303 
| 99> O         -5.827192    -5.097073    -5.727833 
|100> H         -5.285215    -4.305208    -5.942586 
|101> C :       -7.606823    -6.185609    -8.665396 
|102> O :       -6.254148    -6.339586    -8.283159 
|103> H :       -7.714315    -6.601587    -9.665660 
|104> H :       -6.140880    -5.918508    -7.413600 
|105> H :       -8.296331    -6.721365    -8.002909 
|106> H :       -7.917318    -5.135624    -8.705110 
|107> *
|108> 
|109> $new_job
|110> %id "ghost"
|111> %scf guess PModel end
|112> ! DLPNO-CCSD(T) aug-cc-pVTZ aug-cc-pVTZ/C TightPNO
|113> %maxcore 2000
|114> %pal
|115> nprocs 6
|116> end
|117> 
|118> * xyz 0 1
|119> H :       -7.032635    -3.418055    -3.418330 
|120> O :       -7.645069    -4.030457    -3.889770 
|121> H :       -7.088194    -4.461980    -4.563700 
|122> H :       -5.180147    -5.723529    -5.359303 
|123> O :       -5.827192    -5.097073    -5.727833 
|124> H :       -5.285215    -4.305208    -5.942586 
|125> C         -7.606823    -6.185609    -8.665396 
|126> O         -6.254148    -6.339586    -8.283159 
|127> H         -7.714315    -6.601587    -9.665660 
|128> H         -6.140880    -5.918508    -7.413600 
|129> H         -8.296331    -6.721365    -8.002909 
|130> H         -7.917318    -5.135624    -8.705110 
|131> *
|132> 
|133> 
|134>                          ****END OF INPUT****
================================================================================


                 $$$$$$$$$$$$$$$$$$$$$$$$$$$$$$$$$$$$$$$$$$$$$$ 
                 $ THERE ARE  5 JOBS TO BE PROCESSED THIS RUN $
                 $$$$$$$$$$$$$$$$$$$$$$$$$$$$$$$$$$$$$$$$$$$$$$ 




                 $$$$$$$$$$$$$$$$  JOB NUMBER  1 $$$$$$$$$$$$$$


                       ****************************
                       * Single Point Calculation *
                       ****************************

---------------------------------
CARTESIAN COORDINATES (ANGSTROEM)
---------------------------------
  H     -7.032635   -3.418055   -3.418330
  O     -7.645069   -4.030457   -3.889770
  H     -7.088194   -4.461980   -4.563700
  H     -5.180147   -5.723529   -5.359303
  O     -5.827192   -5.097073   -5.727833
  H     -5.285215   -4.305208   -5.942586
  C     -7.606823   -6.185609   -8.665396
  O     -6.254148   -6.339586   -8.283159
  H     -7.714315   -6.601587   -9.665660
  H     -6.140880   -5.918508   -7.413600
  H     -8.296331   -6.721365   -8.002909
  H     -7.917318   -5.135624   -8.705110

----------------------------
CARTESIAN COORDINATES (A.U.)
----------------------------
  NO LB      ZA    FRAG     MASS         X           Y           Z
   0 H     1.0000    0     1.008  -13.289754   -6.459188   -6.459708
   1 O     8.0000    0    15.999  -14.447087   -7.616460   -7.350600
   2 H     1.0000    0     1.008  -13.394745   -8.431920   -8.624143
   3 H     1.0000    0     1.008   -9.789059  -10.815902  -10.127615
   4 O     8.0000    0    15.999  -11.011797   -9.632072  -10.824036
   5 H     1.0000    0     1.008   -9.987609   -8.135664  -11.229860
   6 C     6.0000    0    12.011  -14.374812  -11.689107  -16.375225
   7 O     8.0000    0    15.999  -11.818627  -11.980081  -15.652902
   8 H     1.0000    0     1.008  -14.577943  -12.475191  -18.265450
   9 H     1.0000    0     1.008  -11.604581  -11.184359  -14.009674
  10 H     1.0000    0     1.008  -15.677794  -12.701539  -15.123306
  11 H     1.0000    0     1.008  -14.961563   -9.704923  -16.450274

--------------------------------
INTERNAL COORDINATES (ANGSTROEM)
--------------------------------
 H      0   0   0     0.000000000000     0.00000000     0.00000000
 O      1   0   0     0.986086855992     0.00000000     0.00000000
 H      2   1   0     0.974937695473   104.51386875     0.00000000
 H      3   2   1     2.421803742507   155.18561958    54.44889608
 O      4   3   2     0.973102621958    42.70906279   201.95838093
 H      5   4   3     0.983314851796   103.57095095   113.12292340
 C      5   4   3     3.602953441057   116.27693688   233.54495094
 O      7   5   4     1.414052225458    48.70082081   320.04208045
 H      7   5   4     1.088632305346   155.97308005   310.41862882
 H      8   7   5     0.972763679621   107.81139145     0.54210071
 H      7   5   4     1.096058756988    88.02877387    82.94522620
 H      7   5   4     1.095651790966    83.10778513   191.52844307

---------------------------
INTERNAL COORDINATES (A.U.)
---------------------------
 H      0   0   0     0.000000000000     0.00000000     0.00000000
 O      1   0   0     1.863434102084     0.00000000     0.00000000
 H      2   1   0     1.842365242080   104.51386875     0.00000000
 H      3   2   1     4.576545823443   155.18561958    54.44889608
 O      4   3   2     1.838897455701    42.70906279   201.95838093
 H      5   4   3     1.858195773312   103.57095095   113.12292340
 C      5   4   3     6.808595276867   116.27693688   233.54495094
 O      7   5   4     2.672171445178    48.70082081   320.04208045
 H      7   5   4     2.057216917644   155.97308005   310.41862882
 H      8   7   5     1.838256947508   107.81139145     0.54210071
 H      7   5   4     2.071250877393    88.02877387    82.94522620
 H      7   5   4     2.070481823065    83.10778513   191.52844307

---------------------
BASIS SET INFORMATION
---------------------
There are 3 groups of distinct atoms

 Group   1 Type H   : 6s3p2d contracted to 4s3p2d pattern {3111/111/11}
 Group   2 Type O   : 19s6p3d2f contracted to 5s4p3d2f pattern {88111/3111/111/11}
 Group   3 Type C   : 19s6p3d2f contracted to 5s4p3d2f pattern {88111/3111/111/11}

Atom   0H    basis set group =>   1
Atom   1O    basis set group =>   2
Atom   2H    basis set group =>   1
Atom   3H    basis set group =>   1
Atom   4O    basis set group =>   2
Atom   5H    basis set group =>   1
Atom   6C    basis set group =>   3
Atom   7O    basis set group =>   2
Atom   8H    basis set group =>   1
Atom   9H    basis set group =>   1
Atom  10H    basis set group =>   1
Atom  11H    basis set group =>   1
---------------------------------
AUXILIARY/C BASIS SET INFORMATION
---------------------------------
There are 3 groups of distinct atoms

 Group   1 Type H   : 5s4p3d2f contracted to 5s4p3d2f pattern {11111/1111/111/11}
 Group   2 Type O   : 9s7p6d4f2g contracted to 9s7p6d4f2g pattern {111111111/1111111/111111/1111/11}
 Group   3 Type C   : 9s7p6d4f2g contracted to 9s7p6d4f2g pattern {111111111/1111111/111111/1111/11}

Atom   0H    basis set group =>   1
Atom   1O    basis set group =>   2
Atom   2H    basis set group =>   1
Atom   3H    basis set group =>   1
Atom   4O    basis set group =>   2
Atom   5H    basis set group =>   1
Atom   6C    basis set group =>   3
Atom   7O    basis set group =>   2
Atom   8H    basis set group =>   1
Atom   9H    basis set group =>   1
Atom  10H    basis set group =>   1
Atom  11H    basis set group =>   1


           ************************************************************
           *        Program running with 10 parallel MPI-processes    *
           *              working on a common directory               *
           ************************************************************
------------------------------------------------------------------------------
                           ORCA GTO INTEGRAL CALCULATION
------------------------------------------------------------------------------
------------------------------------------------------------------------------
                   ___                                                        
                  /   \      - P O W E R E D   B Y -                         
                 /     \                                                     
                 |  |  |   _    _      __       _____    __    __             
                 |  |  |  | |  | |    /  \     |  _  \  |  |  /  |          
                  \  \/   | |  | |   /    \    | | | |  |  | /  /          
                 / \  \   | |__| |  /  /\  \   | |_| |  |  |/  /          
                |  |  |   |  __  | /  /__\  \  |    /   |      \           
                |  |  |   | |  | | |   __   |  |    \   |  |\   \          
                \     /   | |  | | |  |  |  |  | |\  \  |  | \   \       
                 \___/    |_|  |_| |__|  |__|  |_| \__\ |__|  \__/        
                                                                              
                      - O R C A' S   B I G   F R I E N D -                    
                                      &                                       
                       - I N T E G R A L  F E E D E R -                       
                                                                              
 v1 FN, 2020, v2 2021                                                         
------------------------------------------------------------------------------


Reading SHARK input file CP.SHARKINP.tmp ... ok
----------------------
SHARK INTEGRAL PACKAGE
----------------------

Number of atoms                             ...     12
Number of basis functions                   ...    392
Number of shells                            ...    152
Maximum angular momentum                    ...      3
Integral batch strategy                     ... SHARK/LIBINT Hybrid
RI-J (if used) integral strategy            ... SPLIT-RIJ (Revised 2003 algorithm where possible)
Printlevel                                  ...      1
Contraction scheme used                     ... PARTIAL GENERAL contraction
Coulomb Range Separation                    ... NOT USED
Exchange Range Separation                   ... NOT USED
Finite Nucleus Model                        ... NOT USED
Auxiliary Coulomb fitting basis             ... NOT available
Auxiliary J/K fitting basis                 ... NOT available
Auxiliary Correlation fitting basis         ... AVAILABLE
   # of basis functions in Aux-C            ...    792
   # of shells in Aux-C                     ...    224
   Maximum angular momentum in Aux-C        ...      4
Auxiliary 'external' fitting basis          ... NOT available
Integral threshold                          ...     1.000000e-10
Primitive cut-off                           ...     1.000000e-11
Primitive pair pre-selection threshold      ...     1.000000e-11

Calculating pre-screening integrals         ... done (  0.1 sec) Dimension = 152
Calculating pre-screening integrals (ORCA)  ... done (  0.1 sec) Dimension = 128
Organizing shell pair data                  ... done (  0.1 sec)
Shell pair information
Total number of shell pairs                 ...     11628
Shell pairs after pre-screening             ...      9846
Total number of primitive shell pairs       ...     15612
Primitive shell pairs kept                  ...     12260
          la=0 lb=0:   2288 shell pairs
          la=1 lb=0:   2625 shell pairs
          la=1 lb=1:    754 shell pairs
          la=2 lb=0:   1780 shell pairs
          la=2 lb=1:   1017 shell pairs
          la=2 lb=2:    367 shell pairs
          la=3 lb=0:    487 shell pairs
          la=3 lb=1:    292 shell pairs
          la=3 lb=2:    204 shell pairs
          la=3 lb=3:     32 shell pairs

Calculating one electron integrals          ... done (  0.0 sec)
Calculating RI/C V-Matrix + Cholesky decomp.... done (  0.1 sec)
Calculating Nuclear repulsion               ... done (  0.0 sec) ENN=    125.748637259431 Eh

SHARK setup successfully completed in   0.8 seconds

Maximum memory used throughout the entire GTOINT-calculation: 24.9 MB


           ************************************************************
           *        Program running with 10 parallel MPI-processes    *
           *              working on a common directory               *
           ************************************************************
-------------------------------------------------------------------------------
                                 ORCA SCF
-------------------------------------------------------------------------------

------------
SCF SETTINGS
------------
Hamiltonian:
 Ab initio Hamiltonian  Method          .... Hartree-Fock(GTOs)


General Settings:
 Integral files         IntName         .... CP
 Hartree-Fock type      HFTyp           .... RHF
 Total Charge           Charge          ....    0
 Multiplicity           Mult            ....    1
 Number of Electrons    NEL             ....   38
 Basis Dimension        Dim             ....  368
 Nuclear Repulsion      ENuc            ....    125.7486372594 Eh

Convergence Acceleration:
 DIIS                   CNVDIIS         .... on
   Start iteration      DIISMaxIt       ....    12
   Startup error        DIISStart       ....  0.200000
   # of expansion vecs  DIISMaxEq       ....     5
   Bias factor          DIISBfac        ....   1.050
   Max. coefficient     DIISMaxC        ....  10.000
 Trust-Rad. Augm. Hess. CNVTRAH         .... auto
   Auto Start mean grad. ratio tolernc. ....  1.125000
   Auto Start start iteration           ....    20
   Auto Start num. interpolation iter.  ....    10
   Max. Number of Micro iterations      ....    16
   Max. Number of Macro iterations      .... Maxiter - #DIIS iter
   Number of Davidson start vectors     ....     2
   Converg. threshold I  (grad. norm)   ....   5.000e-05
   Converg. threshold II (energy diff.) ....   1.000e-06
   Grad. Scal. Fac. for Micro threshold ....   0.100
   Minimum threshold for Micro iter.    ....   0.010
   NR start threshold (gradient norm)   ....   0.001
   Initial trust radius                 ....   0.400
   Minimum AH scaling param. (alpha)    ....   1.000
   Maximum AH scaling param. (alpha)    .... 1000.000
   Orbital update algorithm             .... Taylor
   White noise on init. David. guess    .... on
   Maximum white noise                  ....   0.010
   Quad. conv. algorithm                .... NR
 SOSCF                  CNVSOSCF        .... on
   Start iteration      SOSCFMaxIt      ....   150
   Startup grad/error   SOSCFStart      ....  0.003300
 Level Shifting         CNVShift        .... on
   Level shift para.    LevelShift      ....    0.2500
   Turn off err/grad.   ShiftErr        ....    0.0010
 Zerner damping         CNVZerner       .... off
 Static damping         CNVDamp         .... on
   Fraction old density DampFac         ....    0.7000
   Max. Damping (<1)    DampMax         ....    0.9800
   Min. Damping (>=0)   DampMin         ....    0.0000
   Turn off err/grad.   DampErr         ....    0.1000
 Fernandez-Rico         CNVRico         .... off

SCF Procedure:
 Maximum # iterations   MaxIter         ....   125
 SCF integral mode      SCFMode         .... Direct
   Integral package                     .... SHARK and LIBINT hybrid scheme
 Reset frequency        DirectResetFreq ....    20
 Integral Threshold     Thresh          ....  1.000e-10 Eh
 Primitive CutOff       TCut            ....  1.000e-11 Eh

Convergence Tolerance:
 Convergence Check Mode ConvCheckMode   .... Total+1el-Energy
 Convergence forced     ConvForced      .... 1
 Energy Change          TolE            ....  1.000e-06 Eh
 1-El. energy change                    ....  1.000e-03 Eh
 Orbital Gradient       TolG            ....  5.000e-05
 Orbital Rotation angle TolX            ....  5.000e-05
 DIIS Error             TolErr          ....  1.000e-06


Diagonalization of the overlap matrix:
Smallest eigenvalue                        ... 4.776e-05
Time for diagonalization                   ...    0.067 sec
Threshold for overlap eigenvalues          ... 1.000e-08
Number of eigenvalues below threshold      ... 0
Time for construction of square roots      ...    0.048 sec
Total time needed                          ...    0.117 sec

Time for model grid setup =    0.167 sec

------------------------------
INITIAL GUESS: MODEL POTENTIAL
------------------------------
Loading Hartree-Fock densities                     ... done
Calculating cut-offs                               ... done
Initializing the effective Hamiltonian             ... done
Setting up the integral package (SHARK)            ... done
Starting the Coulomb interaction                   ... done (   0.1 sec)
Reading the grid                                   ... done
Mapping shells                                     ... done
Starting the XC term evaluation                    ... done (   0.0 sec)
Transforming the Hamiltonian                       ... done (   0.0 sec)
Diagonalizing the Hamiltonian                      ... done (   0.0 sec)
Back transforming the eigenvectors                 ... done (   0.0 sec)
Now organizing SCF variables                       ... done
                      ------------------
                      INITIAL GUESS DONE (   0.4 sec)
                      ------------------
--------------
SCF ITERATIONS
--------------
ITER       Energy         Delta-E        Max-DP      RMS-DP      [F,P]     Damp
               ***  Starting incremental Fock matrix formation  ***
  0   -266.9133973804   0.000000000000 0.02773503  0.00048507  0.3788259 0.7000
  1   -267.0271740326  -0.113776652183 0.02037407  0.00034211  0.2189694 0.7000
                               ***Turning on DIIS***
  2   -267.0896222607  -0.062448228187 0.01483539  0.00021246  0.1130424 0.7000
  3   -267.6551739505  -0.565551689745 0.03704107  0.00047569  0.0849884 0.0000
  4   -267.1516442552   0.503529695318 0.00549145  0.00007363  0.0107642 0.0000
                      *** Initiating the SOSCF procedure ***
                           *** Shutting down DIIS ***
                      *** Re-Reading the Fockian *** 
                      *** Removing any level shift *** 
ITER      Energy       Delta-E        Grad      Rot      Max-DP    RMS-DP
  5   -267.20903159  -0.0573873380  0.000919  0.000919  0.003816  0.000036
               *** Restarting incremental Fock matrix formation ***
  6   -267.21346494  -0.0044333434  0.000331  0.000440  0.001468  0.000015
  7   -267.21348353  -0.0000185885  0.000155  0.000370  0.001452  0.000012
  8   -267.21348760  -0.0000040774  0.000061  0.000036  0.000293  0.000002
  9   -267.21348780  -0.0000001960  0.000018  0.000013  0.000025  0.000000
                 **** Energy Check signals convergence ****
              ***Rediagonalizing the Fockian in SOSCF/NRSCF***

               *****************************************************
               *                     SUCCESS                       *
               *           SCF CONVERGED AFTER  10 CYCLES          *
               *****************************************************


----------------
TOTAL SCF ENERGY
----------------

Total Energy       :         -267.21348782 Eh           -7271.24867 eV

Components:
Nuclear Repulsion  :          125.74863726 Eh            3421.79438 eV
Electronic Energy  :         -392.96212508 Eh          -10693.04305 eV
One Electron Energy:         -617.00704308 Eh          -16789.61521 eV
Two Electron Energy:          224.04491800 Eh            6096.57216 eV

Virial components:
Potential Energy   :         -533.94475270 Eh          -14529.37538 eV
Kinetic Energy     :          266.73126488 Eh            7258.12671 eV
Virial Ratio       :            2.00180790


---------------
SCF CONVERGENCE
---------------

  Last Energy change         ...   -2.4135e-08  Tolerance :   1.0000e-06
  Last MAX-Density change    ...    1.1051e-05  Tolerance :   1.0000e-05
  Last RMS-Density change    ...    1.4944e-07  Tolerance :   1.0000e-06
  Last Orbital Gradient      ...    3.3281e-06  Tolerance :   5.0000e-05
  Last Orbital Rotation      ...    4.2815e-06  Tolerance :   5.0000e-05

             **** THE GBW FILE WAS UPDATED (CP.gbw) ****
             **** DENSITY CP.scfp WAS UPDATED ****
             **** ENERGY FILE WAS UPDATED (CP.en.tmp) ****
             **** THE GBW FILE WAS UPDATED (CP.gbw) ****
             **** DENSITY CP.scfp WAS UPDATED ****
----------------
ORBITAL ENERGIES
----------------

  NO   OCC          E(Eh)            E(eV) 
   0   2.0000     -20.626363      -561.2719 
   1   2.0000     -20.545777      -559.0790 
   2   2.0000     -20.540043      -558.9230 
   3   2.0000     -11.258856      -306.3690 
   4   2.0000      -1.407420       -38.2978 
   5   2.0000      -1.340427       -36.4749 
   6   2.0000      -1.320894       -35.9434 
   7   2.0000      -0.911279       -24.7972 
   8   2.0000      -0.762969       -20.7614 
   9   2.0000      -0.700373       -19.0581 
  10   2.0000      -0.687083       -18.6965 
  11   2.0000      -0.636238       -17.3129 
  12   2.0000      -0.605549       -16.4778 
  13   2.0000      -0.588318       -16.0089 
  14   2.0000      -0.578307       -15.7365 
  15   2.0000      -0.541901       -14.7459 
  16   2.0000      -0.487100       -13.2547 
  17   2.0000      -0.484665       -13.1884 
  18   2.0000      -0.434915       -11.8346 
  19   0.0000       0.013540         0.3685 
  20   0.0000       0.039164         1.0657 
  21   0.0000       0.040390         1.0991 
  22   0.0000       0.045003         1.2246 
  23   0.0000       0.055775         1.5177 
  24   0.0000       0.060198         1.6381 
  25   0.0000       0.068223         1.8564 
  26   0.0000       0.084713         2.3052 
  27   0.0000       0.114207         3.1077 
  28   0.0000       0.125893         3.4257 
  29   0.0000       0.131118         3.5679 
  30   0.0000       0.147503         4.0138 
  31   0.0000       0.149591         4.0706 
  32   0.0000       0.154378         4.2008 
  33   0.0000       0.159224         4.3327 
  34   0.0000       0.165699         4.5089 
  35   0.0000       0.173510         4.7214 
  36   0.0000       0.190697         5.1891 
  37   0.0000       0.191385         5.2079 
  38   0.0000       0.198365         5.3978 
  39   0.0000       0.214643         5.8407 
  40   0.0000       0.220051         5.9879 
  41   0.0000       0.230866         6.2822 
  42   0.0000       0.231789         6.3073 
  43   0.0000       0.254749         6.9321 
  44   0.0000       0.258667         7.0387 
  45   0.0000       0.275992         7.5101 
  46   0.0000       0.279589         7.6080 
  47   0.0000       0.295158         8.0317 
  48   0.0000       0.302962         8.2440 
  49   0.0000       0.312570         8.5055 
  50   0.0000       0.320344         8.7170 
  51   0.0000       0.324076         8.8186 
  52   0.0000       0.340958         9.2779 
  53   0.0000       0.348288         9.4774 
  54   0.0000       0.355037         9.6611 
  55   0.0000       0.364804         9.9268 
  56   0.0000       0.368588        10.0298 
  57   0.0000       0.384435        10.4610 
  58   0.0000       0.394527        10.7356 
  59   0.0000       0.403177        10.9710 
  60   0.0000       0.406550        11.0628 
  61   0.0000       0.414878        11.2894 
  62   0.0000       0.417050        11.3485 
  63   0.0000       0.423042        11.5116 
  64   0.0000       0.426238        11.5985 
  65   0.0000       0.436265        11.8714 
  66   0.0000       0.443942        12.0803 
  67   0.0000       0.448332        12.1997 
  68   0.0000       0.461258        12.5515 
  69   0.0000       0.468189        12.7401 
  70   0.0000       0.473716        12.8905 
  71   0.0000       0.478354        13.0167 
  72   0.0000       0.489523        13.3206 
  73   0.0000       0.493514        13.4292 
  74   0.0000       0.510593        13.8940 
  75   0.0000       0.520903        14.1745 
  76   0.0000       0.530885        14.4461 
  77   0.0000       0.556514        15.1435 
  78   0.0000       0.564160        15.3516 
  79   0.0000       0.584334        15.9005 
  80   0.0000       0.620849        16.8942 
  81   0.0000       0.634948        17.2778 
  82   0.0000       0.649732        17.6801 
  83   0.0000       0.676429        18.4066 
  84   0.0000       0.708727        19.2854 
  85   0.0000       0.715153        19.4603 
  86   0.0000       0.721211        19.6251 
  87   0.0000       0.736874        20.0514 
  88   0.0000       0.744229        20.2515 
  89   0.0000       0.759000        20.6534 
  90   0.0000       0.762950        20.7609 
  91   0.0000       0.771477        20.9929 
  92   0.0000       0.781041        21.2532 
  93   0.0000       0.789578        21.4855 
  94   0.0000       0.808459        21.9993 
  95   0.0000       0.819697        22.3051 
  96   0.0000       0.823946        22.4207 
  97   0.0000       0.834382        22.7047 
  98   0.0000       0.840422        22.8690 
  99   0.0000       0.863508        23.4973 
 100   0.0000       0.881823        23.9956 
 101   0.0000       0.908251        24.7148 
 102   0.0000       0.912781        24.8380 
 103   0.0000       0.918757        25.0007 
 104   0.0000       0.923124        25.1195 
 105   0.0000       0.929036        25.2804 
 106   0.0000       0.932352        25.3706 
 107   0.0000       0.943183        25.6653 
 108   0.0000       0.951608        25.8946 
 109   0.0000       0.964564        26.2471 
 110   0.0000       0.965353        26.2686 
 111   0.0000       0.983203        26.7543 
 112   0.0000       0.986981        26.8571 
 113   0.0000       0.992337        27.0029 
 114   0.0000       0.999095        27.1868 
 115   0.0000       0.999719        27.2037 
 116   0.0000       1.006148        27.3787 
 117   0.0000       1.014590        27.6084 
 118   0.0000       1.032812        28.1042 
 119   0.0000       1.043935        28.4069 
 120   0.0000       1.049443        28.5568 
 121   0.0000       1.058005        28.7898 
 122   0.0000       1.065105        28.9830 
 123   0.0000       1.079182        29.3660 
 124   0.0000       1.086489        29.5649 
 125   0.0000       1.092514        29.7288 
 126   0.0000       1.106873        30.1195 
 127   0.0000       1.111917        30.2568 
 128   0.0000       1.135755        30.9055 
 129   0.0000       1.150160        31.2974 
 130   0.0000       1.154291        31.4098 
 131   0.0000       1.165171        31.7059 
 132   0.0000       1.178462        32.0676 
 133   0.0000       1.199127        32.6299 
 134   0.0000       1.208116        32.8745 
 135   0.0000       1.222145        33.2562 
 136   0.0000       1.230412        33.4812 
 137   0.0000       1.233329        33.5606 
 138   0.0000       1.256567        34.1929 
 139   0.0000       1.258804        34.2538 
 140   0.0000       1.275196        34.6998 
 141   0.0000       1.292262        35.1642 
 142   0.0000       1.307293        35.5733 
 143   0.0000       1.320679        35.9375 
 144   0.0000       1.337800        36.4034 
 145   0.0000       1.350068        36.7372 
 146   0.0000       1.380118        37.5549 
 147   0.0000       1.401024        38.1238 
 148   0.0000       1.402420        38.1618 
 149   0.0000       1.414481        38.4900 
 150   0.0000       1.430715        38.9317 
 151   0.0000       1.468761        39.9670 
 152   0.0000       1.485579        40.4247 
 153   0.0000       1.498449        40.7749 
 154   0.0000       1.515196        41.2306 
 155   0.0000       1.544509        42.0282 
 156   0.0000       1.554182        42.2915 
 157   0.0000       1.561823        42.4994 
 158   0.0000       1.597348        43.4660 
 159   0.0000       1.607338        43.7379 
 160   0.0000       1.628815        44.3223 
 161   0.0000       1.633628        44.4533 
 162   0.0000       1.657326        45.0981 
 163   0.0000       1.675340        45.5883 
 164   0.0000       1.685615        45.8679 
 165   0.0000       1.703912        46.3658 
 166   0.0000       1.706581        46.4384 
 167   0.0000       1.722665        46.8761 
 168   0.0000       1.734834        47.2072 
 169   0.0000       1.750780        47.6411 
 170   0.0000       1.764120        48.0042 
 171   0.0000       1.798411        48.9372 
 172   0.0000       1.808322        49.2070 
 173   0.0000       1.830972        49.8233 
 174   0.0000       1.841388        50.1067 
 175   0.0000       1.872616        50.9565 
 176   0.0000       1.931181        52.5501 
 177   0.0000       1.941498        52.8309 
 178   0.0000       1.960749        53.3547 
 179   0.0000       1.980018        53.8790 
 180   0.0000       1.992443        54.2171 
 181   0.0000       2.029906        55.2366 
 182   0.0000       2.047441        55.7137 
 183   0.0000       2.048260        55.7360 
 184   0.0000       2.089038        56.8456 
 185   0.0000       2.097932        57.0876 
 186   0.0000       2.122815        57.7647 
 187   0.0000       2.133909        58.0666 
 188   0.0000       2.168100        58.9970 
 189   0.0000       2.201679        59.9107 
 190   0.0000       2.210583        60.1530 
 191   0.0000       2.276300        61.9413 
 192   0.0000       2.302649        62.6583 
 193   0.0000       2.318441        63.0880 
 194   0.0000       2.362556        64.2884 
 195   0.0000       2.400354        65.3169 
 196   0.0000       2.428484        66.0824 
 197   0.0000       2.451566        66.7105 
 198   0.0000       2.469226        67.1911 
 199   0.0000       2.485077        67.6224 
 200   0.0000       2.501562        68.0710 
 201   0.0000       2.514544        68.4242 
 202   0.0000       2.535420        68.9923 
 203   0.0000       2.552937        69.4690 
 204   0.0000       2.561003        69.6884 
 205   0.0000       2.592459        70.5444 
 206   0.0000       2.613262        71.1105 
 207   0.0000       2.654545        72.2338 
 208   0.0000       2.680961        72.9527 
 209   0.0000       2.704611        73.5962 
 210   0.0000       2.722667        74.0875 
 211   0.0000       2.735747        74.4435 
 212   0.0000       2.756577        75.0103 
 213   0.0000       2.784624        75.7735 
 214   0.0000       2.801827        76.2416 
 215   0.0000       2.804091        76.3032 
 216   0.0000       2.814529        76.5872 
 217   0.0000       2.836517        77.1855 
 218   0.0000       2.864000        77.9334 
 219   0.0000       2.875937        78.2582 
 220   0.0000       2.901538        78.9549 
 221   0.0000       2.917321        79.3843 
 222   0.0000       2.924825        79.5885 
 223   0.0000       2.965458        80.6942 
 224   0.0000       3.022126        82.2362 
 225   0.0000       3.044823        82.8538 
 226   0.0000       3.087283        84.0093 
 227   0.0000       3.107375        84.5560 
 228   0.0000       3.121231        84.9330 
 229   0.0000       3.165842        86.1469 
 230   0.0000       3.183800        86.6356 
 231   0.0000       3.298966        89.7694 
 232   0.0000       3.334545        90.7376 
 233   0.0000       3.377064        91.8946 
 234   0.0000       3.413298        92.8806 
 235   0.0000       3.572794        97.2207 
 236   0.0000       3.581675        97.4623 
 237   0.0000       3.601639        98.0056 
 238   0.0000       3.661055        99.6224 
 239   0.0000       3.684284       100.2545 
 240   0.0000       3.717698       101.1637 
 241   0.0000       3.744737       101.8995 
 242   0.0000       3.803761       103.5056 
 243   0.0000       3.874883       105.4409 
 244   0.0000       3.902722       106.1985 
 245   0.0000       3.932399       107.0060 
 246   0.0000       3.958133       107.7063 
 247   0.0000       3.966259       107.9274 
 248   0.0000       4.034336       109.7799 
 249   0.0000       4.044393       110.0535 
 250   0.0000       4.069755       110.7437 
 251   0.0000       4.080980       111.0491 
 252   0.0000       4.108009       111.7846 
 253   0.0000       4.121757       112.1587 
 254   0.0000       4.138799       112.6224 
 255   0.0000       4.201952       114.3409 
 256   0.0000       4.210996       114.5870 
 257   0.0000       4.220760       114.8527 
 258   0.0000       4.232206       115.1642 
 259   0.0000       4.251994       115.7026 
 260   0.0000       4.271076       116.2219 
 261   0.0000       4.273875       116.2981 
 262   0.0000       4.284675       116.5919 
 263   0.0000       4.287986       116.6820 
 264   0.0000       4.312946       117.3612 
 265   0.0000       4.326668       117.7346 
 266   0.0000       4.347091       118.2903 
 267   0.0000       4.389374       119.4409 
 268   0.0000       4.401358       119.7670 
 269   0.0000       4.469573       121.6233 
 270   0.0000       4.476336       121.8073 
 271   0.0000       4.494399       122.2988 
 272   0.0000       4.520425       123.0070 
 273   0.0000       4.551263       123.8462 
 274   0.0000       4.559125       124.0601 
 275   0.0000       4.589869       124.8967 
 276   0.0000       4.598628       125.1350 
 277   0.0000       4.610322       125.4532 
 278   0.0000       4.628519       125.9484 
 279   0.0000       4.679936       127.3475 
 280   0.0000       4.735879       128.8698 
 281   0.0000       4.751615       129.2980 
 282   0.0000       4.783474       130.1649 
 283   0.0000       4.794839       130.4742 
 284   0.0000       4.815066       131.0246 
 285   0.0000       4.827225       131.3555 
 286   0.0000       4.839366       131.6859 
 287   0.0000       4.871296       132.5547 
 288   0.0000       4.901537       133.3776 
 289   0.0000       4.960140       134.9723 
 290   0.0000       5.024267       136.7173 
 291   0.0000       5.034589       136.9981 
 292   0.0000       5.045286       137.2892 
 293   0.0000       5.063164       137.7757 
 294   0.0000       5.086742       138.4173 
 295   0.0000       5.125409       139.4695 
 296   0.0000       5.134707       139.7225 
 297   0.0000       5.192350       141.2910 
 298   0.0000       5.233420       142.4086 
 299   0.0000       5.248627       142.8224 
 300   0.0000       5.256973       143.0495 
 301   0.0000       5.271068       143.4331 
 302   0.0000       5.301359       144.2573 
 303   0.0000       5.323347       144.8556 
 304   0.0000       5.363471       145.9475 
 305   0.0000       5.395862       146.8289 
 306   0.0000       5.492743       149.4651 
 307   0.0000       5.517575       150.1408 
 308   0.0000       5.546873       150.9381 
 309   0.0000       5.561822       151.3449 
 310   0.0000       5.617522       152.8605 
 311   0.0000       5.627170       153.1231 
 312   0.0000       5.638507       153.4316 
 313   0.0000       5.715349       155.5225 
 314   0.0000       5.743667       156.2931 
 315   0.0000       5.875500       159.8805 
 316   0.0000       5.970098       162.4546 
 317   0.0000       6.121917       166.5858 
 318   0.0000       6.151995       167.4043 
 319   0.0000       6.207689       168.9198 
 320   0.0000       6.228936       169.4980 
 321   0.0000       6.243037       169.8817 
 322   0.0000       6.509732       177.1388 
 323   0.0000       6.556066       178.3996 
 324   0.0000       6.578522       179.0107 
 325   0.0000       6.629094       180.3868 
 326   0.0000       6.656053       181.1204 
 327   0.0000       6.676612       181.6799 
 328   0.0000       6.799137       185.0139 
 329   0.0000       6.833135       185.9391 
 330   0.0000       6.934163       188.6882 
 331   0.0000       6.953370       189.2108 
 332   0.0000       6.971186       189.6956 
 333   0.0000       7.013199       190.8388 
 334   0.0000       7.092871       193.0068 
 335   0.0000       7.136637       194.1978 
 336   0.0000       7.179408       195.3616 
 337   0.0000       7.228300       196.6920 
 338   0.0000       7.245097       197.1491 
 339   0.0000       7.293319       198.4613 
 340   0.0000       7.321064       199.2163 
 341   0.0000       7.346961       199.9210 
 342   0.0000       7.371234       200.5815 
 343   0.0000       7.380317       200.8286 
 344   0.0000       7.416657       201.8175 
 345   0.0000       7.426854       202.0950 
 346   0.0000       7.440039       202.4537 
 347   0.0000       7.493476       203.9079 
 348   0.0000       7.531967       204.9553 
 349   0.0000       7.533776       205.0045 
 350   0.0000       7.572204       206.0502 
 351   0.0000       7.596042       206.6988 
 352   0.0000       7.724182       210.1857 
 353   0.0000       7.778461       211.6627 
 354   0.0000       7.826022       212.9569 
 355   0.0000       7.922853       215.5918 
 356   0.0000       7.933509       215.8818 
 357   0.0000       8.015931       218.1246 
 358   0.0000       8.036247       218.6774 
 359   0.0000       8.106623       220.5924 
 360   0.0000       8.227126       223.8715 
 361   0.0000       8.638164       235.0564 
 362   0.0000       8.842580       240.6188 
 363   0.0000       8.857636       241.0285 
 364   0.0000      15.561599       423.4526 
 365   0.0000      16.152306       439.5266 
 366   0.0000      17.629657       479.7274 
 367   0.0000      17.855825       485.8817 

                    ********************************
                    * MULLIKEN POPULATION ANALYSIS *
                    ********************************

-----------------------
MULLIKEN ATOMIC CHARGES
-----------------------
   0 H :    0.215652
   1 O :   -0.534925
   2 H :    0.307881
   3 H :    0.203257
   4 O :   -0.403621
   5 H :    0.214442
   6 C :   -0.707147
   7 O :   -0.588630
   8 H :    0.338104
   9 H :    0.340563
  10 H :    0.305947
  11 H :    0.308476
Sum of atomic charges:   -0.0000000

--------------------------------
MULLIKEN REDUCED ORBITAL CHARGES
--------------------------------
  0 H s       :     0.668806  s :     0.668806
      pz      :     0.037589  p :     0.099243
      px      :     0.025120
      py      :     0.036535
      dz2     :     0.004638  d :     0.016299
      dxz     :     0.002779
      dyz     :     0.001942
      dx2y2   :     0.005088
      dxy     :     0.001853
  1 O s       :     3.898028  s :     3.898028
      pz      :     1.526077  p :     4.609984
      px      :     1.514211
      py      :     1.569696
      dz2     :     0.001062  d :     0.025605
      dxz     :     0.011900
      dyz     :     0.000788
      dx2y2   :     0.002537
      dxy     :     0.009317
      f0      :     0.000288  f :     0.001308
      f+1     :     0.000036
      f-1     :     0.000249
      f+2     :     0.000081
      f-2     :     0.000360
      f+3     :     0.000020
      f-3     :     0.000273
  2 H s       :     0.589724  s :     0.589724
      pz      :     0.020800  p :     0.055550
      px      :    -0.003780
      py      :     0.038531
      dz2     :     0.016016  d :     0.046845
      dxz     :     0.007917
      dyz     :     0.006041
      dx2y2   :     0.007893
      dxy     :     0.008979
  3 H s       :     0.660099  s :     0.660099
      pz      :     0.054647  p :     0.114745
      px      :     0.024649
      py      :     0.035449
      dz2     :     0.004997  d :     0.021899
      dxz     :     0.003626
      dyz     :     0.004598
      dx2y2   :     0.005691
      dxy     :     0.002986
  4 O s       :     3.893895  s :     3.893895
      pz      :     1.754836  p :     4.507918
      px      :     1.445155
      py      :     1.307927
      dz2     :    -0.001209  d :     0.001778
      dxz     :    -0.002271
      dyz     :    -0.004271
      dx2y2   :     0.001292
      dxy     :     0.008238
      f0      :     0.000208  f :     0.000029
      f+1     :     0.000021
      f-1     :     0.000025
      f+2     :    -0.000019
      f-2     :    -0.000119
      f+3     :    -0.000165
      f-3     :     0.000079
  5 H s       :     0.652277  s :     0.652277
      pz      :     0.049733  p :     0.112658
      px      :     0.025639
      py      :     0.037286
      dz2     :     0.001826  d :     0.020623
      dxz     :     0.003403
      dyz     :     0.007263
      dx2y2   :     0.005603
      dxy     :     0.002527
  6 C s       :     3.267913  s :     3.267913
      pz      :     1.204376  p :     3.169478
      px      :     0.768857
      py      :     1.196246
      dz2     :     0.052598  d :     0.248102
      dxz     :     0.063733
      dyz     :     0.022428
      dx2y2   :     0.046996
      dxy     :     0.062346
      f0      :     0.002169  f :     0.021654
      f+1     :     0.002061
      f-1     :     0.002376
      f+2     :     0.003043
      f-2     :     0.003833
      f+3     :     0.002242
      f-3     :     0.005929
  7 O s       :     3.937113  s :     3.937113
      pz      :     1.441085  p :     4.612287
      px      :     1.390954
      py      :     1.780248
      dz2     :     0.011350  d :     0.036974
      dxz     :     0.005739
      dyz     :     0.006452
      dx2y2   :     0.009413
      dxy     :     0.004020
      f0      :     0.000184  f :     0.002256
      f+1     :     0.000119
      f-1     :     0.000454
      f+2     :     0.000314
      f-2     :     0.000009
      f+3     :     0.000717
      f-3     :     0.000459
  8 H s       :     0.618590  s :     0.618590
      pz      :     0.026766  p :     0.043263
      px      :     0.004287
      py      :     0.012210
      dz2     :     0.000379  d :     0.000042
      dxz     :    -0.001048
      dyz     :     0.000532
      dx2y2   :    -0.000076
      dxy     :     0.000255
  9 H s       :     0.553888  s :     0.553888
      pz      :    -0.028369  p :     0.043872
      px      :     0.040558
      py      :     0.031683
      dz2     :     0.016377  d :     0.061677
      dxz     :     0.022876
      dyz     :     0.012251
      dx2y2   :     0.004736
      dxy     :     0.005437
 10 H s       :     0.650789  s :     0.650789
      pz      :     0.015670  p :     0.041354
      px      :     0.012595
      py      :     0.013089
      dz2     :     0.001398  d :     0.001911
      dxz     :     0.000297
      dyz     :     0.000197
      dx2y2   :    -0.000308
      dxy     :     0.000327
 11 H s       :     0.655214  s :     0.655214
      pz      :     0.004865  p :     0.034587
      px      :     0.008253
      py      :     0.021470
      dz2     :    -0.000794  d :     0.001723
      dxz     :     0.000255
      dyz     :     0.002127
      dx2y2   :     0.000474
      dxy     :    -0.000339


                     *******************************
                     * LOEWDIN POPULATION ANALYSIS *
                     *******************************

----------------------
LOEWDIN ATOMIC CHARGES
----------------------
   0 H :   -0.473384
   1 O :    1.007418
   2 H :   -0.711179
   3 H :   -0.401908
   4 O :    1.116641
   5 H :   -0.382225
   6 C :    0.313224
   7 O :    0.785874
   8 H :   -0.202004
   9 H :   -0.674736
  10 H :   -0.188256
  11 H :   -0.189465

-------------------------------
LOEWDIN REDUCED ORBITAL CHARGES
-------------------------------
  0 H s       :     0.585875  s :     0.585875
      pz      :     0.157389  p :     0.531413
      px      :     0.192364
      py      :     0.181660
      dz2     :     0.065879  d :     0.356095
      dxz     :     0.060232
      dyz     :     0.066530
      dx2y2   :     0.087409
      dxy     :     0.076045
  1 O s       :     3.017112  s :     3.017112
      pz      :     1.275259  p :     3.889925
      px      :     1.322480
      py      :     1.292186
      dz2     :     0.003033  d :     0.071687
      dxz     :     0.026713
      dyz     :     0.017631
      dx2y2   :     0.001020
      dxy     :     0.023290
      f0      :     0.002136  f :     0.013859
      f+1     :     0.001665
      f-1     :     0.000667
      f+2     :     0.000515
      f-2     :     0.005404
      f+3     :     0.001140
      f-3     :     0.002331
  2 H s       :     0.562281  s :     0.562281
      pz      :     0.230237  p :     0.633408
      px      :     0.225684
      py      :     0.177487
      dz2     :     0.116061  d :     0.515489
      dxz     :     0.136791
      dyz     :     0.099240
      dx2y2   :     0.083294
      dxy     :     0.080104
  3 H s       :     0.557195  s :     0.557195
      pz      :     0.151474  p :     0.495880
      px      :     0.181132
      py      :     0.163274
      dz2     :     0.051806  d :     0.348833
      dxz     :     0.060232
      dyz     :     0.060478
      dx2y2   :     0.102631
      dxy     :     0.073687
  4 O s       :     2.941728  s :     2.941728
      pz      :     1.352208  p :     3.802882
      px      :     1.279492
      py      :     1.171182
      dz2     :     0.017847  d :     0.117459
      dxz     :     0.022539
      dyz     :     0.020134
      dx2y2   :     0.008501
      dxy     :     0.048439
      f0      :     0.003258  f :     0.021289
      f+1     :     0.001583
      f-1     :     0.002513
      f+2     :     0.000938
      f-2     :     0.004800
      f+3     :     0.005084
      f-3     :     0.003114
  5 H s       :     0.551975  s :     0.551975
      pz      :     0.138165  p :     0.485299
      px      :     0.162276
      py      :     0.184858
      dz2     :     0.037873  d :     0.344952
      dxz     :     0.037032
      dyz     :     0.079217
      dx2y2   :     0.099483
      dxy     :     0.091348
  6 C s       :     2.471048  s :     2.471048
      pz      :     0.774864  p :     2.194006
      px      :     0.629582
      py      :     0.789559
      dz2     :     0.128221  d :     0.701668
      dxz     :     0.164180
      dyz     :     0.054030
      dx2y2   :     0.173165
      dxy     :     0.182071
      f0      :     0.025321  f :     0.320055
      f+1     :     0.062301
      f-1     :     0.015156
      f+2     :     0.047487
      f-2     :     0.033418
      f+3     :     0.053390
      f-3     :     0.082982
  7 O s       :     3.003091  s :     3.003091
      pz      :     1.268391  p :     3.890364
      px      :     1.220089
      py      :     1.401884
      dz2     :     0.050200  d :     0.256727
      dxz     :     0.072865
      dyz     :     0.019432
      dx2y2   :     0.052463
      dxy     :     0.061766
      f0      :     0.005794  f :     0.063944
      f+1     :     0.012467
      f-1     :     0.005184
      f+2     :     0.011878
      f-2     :     0.002977
      f+3     :     0.010459
      f-3     :     0.015185
  8 H s       :     0.670100  s :     0.670100
      pz      :     0.142603  p :     0.305437
      px      :     0.063154
      py      :     0.099680
      dz2     :     0.065860  d :     0.226467
      dxz     :     0.064111
      dyz     :     0.058340
      dx2y2   :     0.027988
      dxy     :     0.010168
  9 H s       :     0.571999  s :     0.571999
      pz      :     0.283942  p :     0.604417
      px      :     0.134630
      py      :     0.185844
      dz2     :     0.163244  d :     0.498321
      dxz     :     0.119860
      dyz     :     0.146689
      dx2y2   :     0.039504
      dxy     :     0.029023
 10 H s       :     0.672060  s :     0.672060
      pz      :     0.112559  p :     0.299222
      px      :     0.082844
      py      :     0.103819
      dz2     :     0.065570  d :     0.216974
      dxz     :     0.034474
      dyz     :     0.031271
      dx2y2   :     0.058506
      dxy     :     0.027154
 11 H s       :     0.671685  s :     0.671685
      pz      :     0.085510  p :     0.300252
      px      :     0.062122
      py      :     0.152620
      dz2     :     0.016529  d :     0.217528
      dxz     :     0.008126
      dyz     :     0.081700
      dx2y2   :     0.058894
      dxy     :     0.052279


                      *****************************
                      * MAYER POPULATION ANALYSIS *
                      *****************************

  NA   - Mulliken gross atomic population
  ZA   - Total nuclear charge
  QA   - Mulliken gross atomic charge
  VA   - Mayer's total valence
  BVA  - Mayer's bonded valence
  FA   - Mayer's free valence

  ATOM       NA         ZA         QA         VA         BVA        FA
  0 H      0.7843     1.0000     0.2157     1.0546     1.0546     0.0000
  1 O      8.5349     8.0000    -0.5349     1.8829     1.8829     0.0000
  2 H      0.6921     1.0000     0.3079     0.9476     0.9476     0.0000
  3 H      0.7967     1.0000     0.2033     1.0636     1.0636    -0.0000
  4 O      8.4036     8.0000    -0.4036     1.9968     1.9968    -0.0000
  5 H      0.7856     1.0000     0.2144     1.0588     1.0588    -0.0000
  6 C      6.7071     6.0000    -0.7071     3.6550     3.6550     0.0000
  7 O      8.5886     8.0000    -0.5886     1.7777     1.7777    -0.0000
  8 H      0.6619     1.0000     0.3381     0.9934     0.9934    -0.0000
  9 H      0.6594     1.0000     0.3406     0.8512     0.8512    -0.0000
 10 H      0.6941     1.0000     0.3059     1.0007     1.0007     0.0000
 11 H      0.6915     1.0000     0.3085     0.9834     0.9834     0.0000

  Mayer bond orders larger than 0.100000
B(  0-H ,  1-O ) :   1.0081 B(  1-O ,  2-H ) :   0.8983 B(  3-H ,  4-O ) :   1.0231 
B(  4-O ,  5-H ) :   1.0168 B(  6-C ,  7-O ) :   0.8937 B(  6-C ,  8-H ) :   0.9158 
B(  6-C , 10-H ) :   0.8960 B(  6-C , 11-H ) :   0.8890 B(  7-O ,  9-H ) :   0.8588 


-------
TIMINGS
-------

Total SCF time: 0 days 0 hours 0 min 58 sec 

Total time                  ....      58.956 sec
Sum of individual times     ....      58.119 sec  ( 98.6%)

Fock matrix formation       ....      57.014 sec  ( 96.7%)
Diagonalization             ....       0.316 sec  (  0.5%)
Density matrix formation    ....       0.015 sec  (  0.0%)
Population analysis         ....       0.071 sec  (  0.1%)
Initial guess               ....       0.209 sec  (  0.4%)
Orbital Transformation      ....       0.000 sec  (  0.0%)
Orbital Orthonormalization  ....       0.000 sec  (  0.0%)
DIIS solution               ....       0.168 sec  (  0.3%)
SOSCF solution              ....       0.160 sec  (  0.3%)

Maximum memory used throughout the entire SCF-calculation: 238.9 MB


           ************************************************************
           *        Program running with 10 parallel MPI-processes    *
           *              working on a common directory               *
           ************************************************************


--------------------------------------------------------------------------------
                             ORCA-MATRIX DRIVEN CI
--------------------------------------------------------------------------------


Wavefunction type
-----------------
Correlation treatment                      ...      CCSD     
Single excitations                         ... ON
Orbital optimization                       ... OFF
Calculation of Z vector                    ... OFF
Calculation of Brueckner orbitals          ... OFF
Perturbative triple excitations            ... ON
Calculation of F12 correction              ... OFF
Frozen core treatment                      ... chemical core (8 el)
Reference Wavefunction                     ... RHF
  Internal Orbitals:     4 ...   18 ( 15 MO's/ 30 electrons)
  Virtual  Orbitals:    19 ...  367 (349 MO's              )
Number of AO's                             ...    368
Number of electrons                        ...     38
Number of correlated electrons             ...     30

Algorithmic settings
--------------------
Integral transformation                    ... All integrals via the RI transformation
K(C) Formation                             ... RI-DLPNO
   PNO-Integral Storage                    ... ON DISK
   PNO occupation number cut-off           ... 1.000e-07
   Singles PNO occupation number cut-off   ... 3.000e-09
   PNO Mulliken prescreening cut-off       ... 1.000e-03
   Domain cut-off (Mulliken population)    ... 1.000e-03
   PNO Normalization                       ...    1
Maximum number of iterations               ...        50
Convergence tolerance (max. residuum)      ... 2.500e-05
Level shift for amplitude update           ... 2.000e-01
Maximum number of DIIS vectors             ...         7
DIIS turned on at iteration                ...         0
Damping before turning on DIIS             ...     0.500
Damping after turning on DIIS              ...     0.000
Pair specific amplitude update             ... OFF
Natural orbital iterations                 ... OFF
Perturbative natural orbital generation    ... OFF
Printlevel                                 ... 2

[...]
   TCutDO    ...     2.0e-02
   TCutCMO   ...     1.0e-03
   TCutCPAO  ...     1.0e-03

--------------------------------
LOCAL RI TRANSFORMATION (IAVPAO)
--------------------------------

Orbital window:       2 to 8
Number of PAOs:     368
Basis functions:    368 (128 shells)
Aux. functions:     792 (224 shells)
Use SHARK:           on

Processing maps (0.0 sec)
Average map sizes:
   Aux shells -> MOs               4.4
   Aux shells -> PAOs            230.0
   MOs        -> AO shells       124.7
   PAOs       -> AO shells       112.2

Calculating integrals (0.5 sec, 9.872 MB)
Sorting integrals (0.0 sec, 9.866 MB)
Total time for the integral transformation: 0.6 sec
--------------------------------
INITIAL GUESS AND PNO GENERATION
--------------------------------

PNO truncation parameters                   .... 
    ScaleTCutPNO       =        1.000e-02
    PAOOverlapThresh   =        1.000e-08

    TCutPairs          =        1.000e-05
    TCutPNO            =        1.000e-07
    TCutPNOSingles     =        3.000e-09
    TCutMP2Pairs       =        1.000e-06
    TCutMKN            =        1.000e-03
    TCutDO             =        5.000e-03

Pair selection                          .... not used
Type of local MP2 treatment                 .... full local PMP2
Strategy for PNO selection                  .... occupation number selection
Pair density normalization                  .... MP2 norm
Spin component scaling                      .... not used

PASS-1: Formation of initial guess LMP2 amplitudes
Initial amplitudes guess done. Entering LMP2 iteration loop:
   Max. no of iterations          ...  50
   Energy convergence tolerance   ...    1.0e-07
   Residual convergence tolerance ...    5.0e-07
   Fock matrix cutoff             ...    1.0e-05 Eh
   DIIS convergence acceleration parameters:
        Max # vectors in DIIS     ... 7
        Start iteration of DIIS   ... 0
        Levelshift                ... 2.000e-01
        Damping factor 1          ... 5.000e-01
        Damping factor 2          ... 1.000e+00
   L-MP2 PNO cut-off              ...   1.0e-09
   L-MP2 PNO cut-off (core)       ...   1.0e-11
                           *** Turning on DIIS ***
LMP2-Iter=   0:  ELMP2= -0.432854631588  DE=   7.6e-03 RMAX=   4.9e-03
LMP2-Iter=   1:  ELMP2= -0.436948410169  DE=   4.1e-03 RMAX=   2.6e-03
LMP2-Iter=   2:  ELMP2= -0.437574482249  DE=   6.3e-04 RMAX=   4.6e-04
LMP2-Iter=   3:  ELMP2= -0.437650019225  DE=   7.6e-05 RMAX=   1.7e-04
LMP2-Iter=   4:  ELMP2= -0.437654874685  DE=   4.9e-06 RMAX=   2.1e-05
LMP2-Iter=   5:  ELMP2= -0.437654562253  DE=   3.1e-07 RMAX=   7.3e-06
LMP2-Iter=   6:  ELMP2= -0.437654499486  DE=   6.3e-08 RMAX=   7.6e-07
LMP2-Iter=   7:  ELMP2= -0.437654496316  DE=   3.2e-09 RMAX=   1.8e-07
LMP2-Iter=   8:  ELMP2= -0.437654500926  DE=   4.6e-09 RMAX=   2.0e-08 => CONVERGED
PASS-2: Formation of Pair natural orbitals
   .... Finished loop over pairs

 PNO Occupation Number Statistics: 
  | Av. % of trace(Dij) retained        ...  99.944296667916
  | sigma^2 in % of trace(Dij) retained ...   4.10e-03
  | Av. % of trace(Di) retained         ...  99.999693602220
  | sigma^2 in % of trace(Di) retained  ...   5.63e-09
 Distributions of % trace(Dij) recovered:
  |       >= 99.9  ...    19 ( 67.9 % of all pairs)
  |   [99.0, 99.9) ...     9 ( 32.1 % of all pairs)
 Distributions of % trace(Di) recovered :
  |       >= 99.9  ...     7 (100.0 % of all I-pairs )

Making pair pair interaction lists          ... done

                       ===========================
                         28 OF   28 PAIRS ARE KEPT
                       ===========================

Total time spent in the initial guess                 ...     3.995 sec
L-MP2 correlation energy (all non-screened pairs)     ...      -0.437654500926 Eh
L-MP2 PNO error correction                            ...      -0.000002267769 Eh
                                                          --------------------
Initial total L-MP2 energy (non-screened pairs)       ...      -0.437656768694 Eh

Initial PNO correlation energy                        ...      -0.437453444336 Eh
sum of pair energies estimated for screened out pairs ...       0.000000000000 Eh
sum of MP2 pair energies for pairs that were not kept ...       0.000000000000 Eh
sum of PNO error estimates for the kept pairs         ...      -0.000203324358 Eh
                                                          --------------------
sum of all corrections                                         -0.000203324358
Initial total correlation energy                               -0.437656768694
Thresholds for map construction and integral transformation for fine MP2 and CCSD(T) calculation:
   TCutMKN   ...     1.0e-03
   TCutDO    ...     5.0e-03
   TCutPairs ...     1.0e-05
   TCutCMO   ...     1.0e-03
   TCutCPAO  ...     1.0e-03

Time for aux screen maps:            0.001
Time for maps after fine MP2:            0.004
-----------------------------
LOCAL RI TRANSFORMATION (IJV)
-----------------------------

Orbital window:       2 to 8
Basis functions:    368 (128 shells)
Aux. functions:     792 (224 shells)
Use SHARK:           on

Processing maps (0.0 sec)
Average map sizes:
   Aux shells -> MOs(i)            4.4
   Aux shells -> MOs(j)            4.4
   MOs        -> AO shells       124.7

Calculating integrals (0.4 sec, 0.193 MB)
Sorting integrals (0.0 sec, 0.188 MB)
Total time for the integral transformation: 0.5 sec
--------------------------------
LOCAL RI TRANSFORMATION (VABPAO)
--------------------------------

Number of PAOs:     368
Basis functions:    368 (128 shells)
Aux. functions:     792 (224 shells)
Use SHARK:           on

Processing maps (0.0 sec)
Average map sizes:
   Aux shells -> PAOs            230.0
   PAOs       -> AO shells       112.2

Calculating integrals (1.3 sec, 518.674 MB)
Finished


-------------------------------------
Pair Pair Term precalculation with     
RI-(ij|mn) and (im|jn) transformation  
ON THE FLY                             
-------------------------------------

   IBatch   1 (of   1)              ... done (    9.294 sec)
Total EXT                           ...           9.294 sec

---------------------
RI-PNO TRANSFORMATION
---------------------

Total Number of PNOs                   ...  1773
Average number of PNOs per pair        ...    63
Maximal number of PNOs per pair        ...    74
   #pairs with  1 -  5 PNOs   :    0
   #pairs with  6 - 10 PNOs   :    0
   #pairs with 11 - 15 PNOs   :    0
   #pairs with 16 - 20 PNOs   :    0
   #pairs with 21 - 25 PNOs   :    0
   #pairs with 26 - 30 PNOs   :    0
   #pairs with 31 - 35 PNOs   :    0
   #pairs with 36 - 40 PNOs   :    0
   #pairs with 41 - 45 PNOs   :    0
   #pairs with 46 - 50 PNOs   :    0
   #pairs with 51 - 55 PNOs   :    2
   #pairs with 56 - 60 PNOs   :   11
   #pairs with 61 - 65 PNOs   :    2
   #pairs with 66 - 70 PNOs   :    9
   #pairs with 71 - 75 PNOs   :    4

Generation of (ij|ab)[P] integrals            ... on
Generation of (ia|bc)[P],(ja|bc)[P] integrals ... on
Storage of 3 and 4 external integrals         ... on
Generation of ALL (ka|bc)[P] integrals        ... on
Keep RI integrals in memory                   ... off

Ibatch:  1 (of  1)
Starting 2-4 index PNO integral generation ... done

Timings:
Total PNO integral transformation time     ...          6.624 sec
Size of the 3-external file                ...        56 MB
Size of the 4-external file                ...       472 MB
Size of the IKJL file                      ...         0 MB
Size of the all 3-external file            ...       199 MB
Size of the 1-external file                ...         0 MB

Making pair/pair overlap matrices          ... done (    0.237 sec)
Size of the pair overlap file              ... 23 MB
Redoing the guess amplitudes               ... done (    0.004 sec)

-------------------------
FINAL STARTUP INFORMATION
-------------------------

E(0)                                       ...   -115.091443392
E(L-MP2)                                   ...     -0.437656769
E(L-MP2) including corrections             ...     -0.437656769
Initial E(tot)                             ...   -115.529100161
<T|T>                                      ...      0.105411056
Number of pairs included                   ... 28
Total number of pairs                      ... 28

------------------------------------------------
                  RHF COUPLED CLUSTER ITERATIONS
------------------------------------------------

Number of PNO amplitudes to be optimized   ...       113529
Number of non-PNO amplitudes               ...      3608668
Untruncated number of regular amplitudes   ...      3608668

Iter       E(tot)           E(Corr)          Delta-E          Residual     Time
  0   -115.516618639     -0.424971923      0.012684846      0.014744115    5.70
                           *** Turning on DIIS ***
  1   -115.532987382     -0.441340665     -0.016368742      0.007997576    5.61
  2   -115.544096677     -0.452449960     -0.011109295      0.002268809    7.08
  3   -115.546216833     -0.454570116     -0.002120156      0.001208510    5.70
  4   -115.546718742     -0.455072025     -0.000501909      0.000351203    5.76
  5   -115.546823737     -0.455177020     -0.000104995      0.000124461    5.67
  6   -115.546844631     -0.455197915     -0.000020895      0.000049979    5.76
  7   -115.546846501     -0.455199784     -0.000001869      0.000019563    5.63
               --- The Coupled-Cluster iterations have converged ---

----------------------
COUPLED CLUSTER ENERGY
----------------------

E(0)                                       ...   -115.091443392
E(CORR)(strong-pairs)                      ...     -0.455199784
E(CORR)(weak-pairs)                        ...     -0.000203324
E(CORR)(corrected)                         ...     -0.455403108
E(TOT)                                     ...   -115.546846501
Singles Norm <S|S>**1/2                    ...      0.035842032  
T1 diagnostic                              ...      0.009579186  

------------------
LARGEST AMPLITUDES
------------------
   6->  9   6->  9       0.041285
   5->  9   5->  9       0.033906
   5-> 17   5-> 17       0.033729
   8->  9   8->  9       0.033297
   7->  9   7->  9       0.033251
   4->  9   4->  9       0.031127
   6->  9   6-> 17       0.030801
   6-> 17   6->  9       0.030801
   6-> 17   6-> 17       0.029742
   5-> 17   5->  9       0.027952
   5->  9   5-> 17       0.027952
   7-> 16   7-> 16       0.026042
   8-> 16   8-> 16       0.025261
   7-> 16   7->  9       0.022658
   7->  9   7-> 16       0.022658
   5-> 13   5-> 13       0.022440


-------------------------------------------
DLPNO BASED TRIPLES CORRECTION
-------------------------------------------

Singles multiplier          ...  1.000000
TCutTNO                     ... 1.000e-09
TCutMP2Pairs                ... 1.000e-06
TCutDOStrong                ... 1.000e-02
TCutMKNStrong               ... 1.000e-02
TCutDOWeak                  ... 2.000e-02
TCutMKNWeak                 ... 1.000e-01

Fragment selection                          .... not used
Fock matrix occ-virt block is zero --> Setting DT_in_Triples to false.
Number of Triples that are to be computed   ...        77

 . . . . . . . . .
10% done  
20% done  
30% done  
40% done  
50% done  
60% done  
70% done  
80% done  
90% done               (     12.457 sec)
Triples timings:
Total time for T0               ...    13.294 sec
Total time for Iterative (T)    ...     0.000 sec
Total time of overall (T)       ...    14.415 sec

Triples List generation         ...     0.000 sec
TNO generation                  ...     0.821 sec
Pair density generation         ...     0.001 sec
Look up tables                  ...     0.000 sec
Generating 3-index integrals    ...     7.743 sec
  Make 4-ind.int. from 3-ind.int...     1.930 sec
  Projecting amplitudes (D + S) ...     0.392 sec
  Downprojecting integrals      ...     0.000 sec
  Energy contr. (sum over a,b,c)...     0.484 sec
Fitting ET(->0)                 ...     0.000 sec

Everything after 3-index        ...     4.714 sec

Timing details:
 TNO integrals                  ...     9.495 sec
   Reading 3-index integrals    ...     0.173 sec
   Sorting integrals            ...     1.488 sec
       Sorting integrals 1      ...     0.000 sec
       Sorting integrals 2      ...     0.748 sec
       Sorting integrals 3      ...     0.050 sec
       Sorting integrals 4      ...     0.001 sec
       Sorting integrals 5      ...     0.006 sec
       Sorting integrals 6      ...     0.683 sec
   Calculating local VM**-1/2   ...     0.039 sec
   Orthogonal. integrals        ...     0.085 sec
   Multipl. 3-index integrals   ...     7.711 sec
   All concerning IRIab (w/TNO) ...     1.044 sec

 Calculate W0/W1                ...     1.891 sec
 W 3-ext contribution           ...     1.290 sec
 W 3-int contribution           ...     0.153 sec
 Sorting W                      ...     0.405 sec

 V exchange contribution        ...     0.147 sec

 Timings for Triples without generation
     of 3-index integrals       ...     4.714 sec
       0 weak pairs             ...     4.714 sec
       1 weak pair              ...     0.000 sec
       2 weak pairs             ...     0.000 sec
       3 weak pairs             ...     0.000 sec
  Extra time for extrapolation  ...     0.000 sec

Number of Triples   (0, 1, 2, 3 weak pairs; overall):     77       0       0       0  (    77)
Number of Atoms     (0, 1, 2, 3 weak pairs; overall):    9.9     0.0     0.0     0.0  (    12)
Number of PAOs      (0, 1, 2, 3 weak pairs; overall):  297.8     0.0     0.0     0.0  (   368)
Number of AuxFcns   (0, 1, 2, 3 weak pairs; overall):  352.0     0.0     0.0     0.0  (   792)
Number of TNOs      (0, 1, 2, 3 weak pairs         ):  116.8     0.0     0.0     0.0
Aver. Number of NTNO, Atoms, PAOs, AuxFcns / Triples:     77   116.8     9.9   297.8   352.0

Triples Correction (T)                     ...     -0.015334462
Final correlation energy                   ...     -0.470737570
E(CCSD)                                    ...   -115.546846501
E(CCSD(T))                                 ...   -115.562180963



--------------------------------------------------------------------------------
                                    TIMINGS
--------------------------------------------------------------------------------


Total execution time                   ...      100.830 sec

Localization of occupied MO's          ...        0.538 sec (  0.5%)
Fock Matrix Formation                  ...       13.251 sec ( 13.1%)
Global overlap, Fock, MKN matrices     ...        0.461 sec (  0.5%)
Differential overlap integrals         ...        0.532 sec (  0.5%)
Organizing maps                        ...        0.013 sec (  0.0%)
RI 3-index integral generations        ...        2.830 sec (  2.8%)
RI-PNO integral transformation         ...       16.919 sec ( 16.8%)
Initial Guess                          ...        4.507 sec (  4.5%)
DIIS Solver                            ...        1.036 sec (  1.0%)
State Vector Update                    ...        0.004 sec (  0.0%)
Sigma-vector construction              ...       46.666 sec ( 46.3%)
  <D|H|D>(0-ext)                       ...        0.432 sec (  0.9% of sigma)
  <D|H|D>(2-ext Fock)                  ...        0.005 sec (  0.0% of sigma)
  <D|H|D>(2-ext)                       ...        1.958 sec (  4.2% of sigma)
  <D|H|D>(4-ext)                       ...        8.868 sec ( 19.0% of sigma)
  <D|H|D>(4-ext-corr)                  ...       26.751 sec ( 57.3% of sigma)
  CCSD doubles correction              ...        0.098 sec (  0.2% of sigma)
  <S|H|S>                              ...        1.808 sec (  3.9% of sigma)
  <S|H|D>(1-ext)                       ...        0.053 sec (  0.1% of sigma)
  <D|H|S>(1-ext)                       ...        0.001 sec (  0.0% of sigma)
  <S|H|D>(3-ext)                       ...        0.166 sec (  0.4% of sigma)
  Fock-dressing                        ...        2.186 sec (  4.7% of sigma)
  Singles amplitudes                   ...        0.310 sec (  0.7% of sigma)
  (ik|jl)-dressing                     ...        0.782 sec (  1.7% of sigma)
  (ij|ab),(ia|jb)-dressing             ...        2.919 sec (  6.3% of sigma)
  Pair energies                        ...        0.005 sec (  0.0% of sigma)
Total Time for computing (T)           ...       14.433 sec ( 14.3% of ALL)


Maximum memory used throughout the entire MDCI-calculation: 1078.2 MB

-------------------------   --------------------
FINAL SINGLE POINT ENERGY      -115.562180962553
-------------------------   --------------------


                            ***************************************
                            *     ORCA property calculations      *
                            ***************************************


  WARNING: The energy has been calculated at the MDCI level but the densities
           used in the property calculations are still SCF densities
           MDCI response densities have not been calculated 
           use %mdci Density linearized end
           or  %mdci Density unrelaxed end
           or  %mdci Density orbopt end

                                    ---------------------
                                    Active property flags
                                    ---------------------
   (+) Dipole Moment


------------------------------------------------------------------------------
                       ORCA ELECTRIC PROPERTIES CALCULATION
------------------------------------------------------------------------------

Dipole Moment Calculation                       ... on
Quadrupole Moment Calculation                   ... off
Polarizability Calculation                      ... off
GBWName                                         ... CP_job5.gbw
Electron density                                ... CP_job5.scfp
The origin for moment calculation is the CENTER OF MASS  = (-13.077166, -11.812675 -15.962584)

-------------
DIPOLE MOMENT
-------------
                                X             Y             Z
Electronic contribution:      1.72968      -0.25912       0.37214
Nuclear contribution   :     -2.23079       0.58684       0.00323
                        -----------------------------------------
Total Dipole Moment    :     -0.50111       0.32772       0.37537
                        -----------------------------------------
Magnitude (a.u.)       :      0.70669
Magnitude (Debye)      :      1.79627



--------------------
Rotational spectrum 
--------------------
 
Rotational constants in cm-1:     4.279461     0.830455     0.800388 
Rotational constants in MHz : 128295.008539 24896.411732 23995.042361 

 Dipole components along the rotational axes: 
x,y,z [a.u.] :     0.381240     0.595033    -0.002326 
x,y,z [Debye]:     0.969035     1.512453    -0.005911 

 

Timings for individual modules:

Sum of individual times         ...      182.814 sec (=   3.047 min)
GTO integral calculation        ...        1.332 sec (=   0.022 min)   0.7 %
SCF iterations                  ...       79.846 sec (=   1.331 min)  43.7 %
MDCI module                     ...      101.636 sec (=   1.694 min)  55.6 %

Energy for            dimer from job 1  =   -268.257198996
Energy for         fragment from job 2  =   -152.689116595
Energy for         fragment from job 3  =   -115.561761793
Energy for            ghost from job 4  =   -152.689679321
Energy for            ghost from job 5  =   -115.562180963


Energy for fragment            dimer:   -268.257198996 Eh
Energy for fragment         fragment:   -268.250878388 Eh    3.966 kcal/mol
Energy for fragment            ghost:   -268.251860283 Eh    3.350 kcal/mol

----------------------------
REACTION ENERGIES (kcal/mol)   3.966   3.350 
----------------------------

                             ****ORCA TERMINATED NORMALLY****
TOTAL RUN TIME: 0 days 0 hours 11 minutes 32 seconds 482 msec
