
                                 *****************
                                 * O   R   C   A *
                                 *****************

                                            #,                                       
                                            ###                                      
                                            ####                                     
                                            #####                                    
                                            ######                                   
                                           ########,                                 
                                     ,,################,,,,,                         
                               ,,#################################,,                 
                          ,,##########################################,,             
                       ,#########################################, ''#####,          
                    ,#############################################,,   '####,        
                  ,##################################################,,,,####,       
                ,###########''''           ''''###############################       
              ,#####''   ,,,,##########,,,,          '''####'''          '####       
            ,##' ,,,,###########################,,,                        '##       
           ' ,,###''''                  '''############,,,                           
         ,,##''                                '''############,,,,        ,,,,,,###''
      ,#''                                            '''#######################'''  
     '                                                          ''''####''''         
             ,#######,   #######,   ,#######,      ##                                
            ,#'     '#,  ##    ##  ,#'     '#,    #''#        ######   ,####,        
            ##       ##  ##   ,#'  ##            #'  '#       #        #'  '#        
            ##       ##  #######   ##           ,######,      #####,   #    #        
            '#,     ,#'  ##    ##  '#,     ,#' ,#      #,         ##   #,  ,#        
             '#######'   ##     ##  '#######'  #'      '#     #####' # '####'        



                  #######################################################
                  #                        -***-                        #
                  #          Department of theory and spectroscopy      #
                  #    Directorship and core code : Frank Neese         #
                  #        Max Planck Institute fuer Kohlenforschung    #
                  #                Kaiser Wilhelm Platz 1               #
                  #                 D-45470 Muelheim/Ruhr               #
                  #                      Germany                        #
                  #                                                     #
                  #                  All rights reserved                #
                  #                        -***-                        #
                  #######################################################


                         Program Version 5.0.2 -  RELEASE  -


 With contributions from (in alphabetic order):
   Daniel Aravena         : Magnetic Suceptibility
   Michael Atanasov       : Ab Initio Ligand Field Theory (pilot matlab implementation)
   Alexander A. Auer      : GIAO ZORA, VPT2 properties, NMR spectrum
   Ute Becker             : Parallelization
   Giovanni Bistoni       : ED, misc. LED, open-shell LED, HFLD
   Martin Brehm           : Molecular dynamics
   Dmytro Bykov           : SCF Hessian
   Vijay G. Chilkuri      : MRCI spin determinant printing, contributions to CSF-ICE
   Dipayan Datta          : RHF DLPNO-CCSD density
   Achintya Kumar Dutta   : EOM-CC, STEOM-CC
   Dmitry Ganyushin       : Spin-Orbit,Spin-Spin,Magnetic field MRCI
   Miquel Garcia          : C-PCM and meta-GGA Hessian, CC/C-PCM, Gaussian charge scheme
   Yang Guo               : DLPNO-NEVPT2, F12-NEVPT2, CIM, IAO-localization
   Andreas Hansen         : Spin unrestricted coupled pair/coupled cluster methods
   Benjamin Helmich-Paris : MC-RPA, TRAH-SCF, COSX integrals
   Lee Huntington         : MR-EOM, pCC
   Robert Izsak           : Overlap fitted RIJCOSX, COSX-SCS-MP3, EOM
   Marcus Kettner         : VPT2
   Christian Kollmar      : KDIIS, OOCD, Brueckner-CCSD(T), CCSD density, CASPT2, CASPT2-K
   Simone Kossmann        : Meta GGA functionals, TD-DFT gradient, OOMP2, MP2 Hessian
   Martin Krupicka        : Initial AUTO-CI
   Lucas Lang             : DCDCAS
   Marvin Lechner         : AUTO-CI (C++ implementation), FIC-MRCC
   Dagmar Lenk            : GEPOL surface, SMD
   Dimitrios Liakos       : Extrapolation schemes; Compound Job, initial MDCI parallelization
   Dimitrios Manganas     : Further ROCIS development; embedding schemes
   Dimitrios Pantazis     : SARC Basis sets
   Anastasios Papadopoulos: AUTO-CI, single reference methods and gradients
   Taras Petrenko         : DFT Hessian,TD-DFT gradient, ASA, ECA, R-Raman, ABS, FL, XAS/XES, NRVS
   Peter Pinski           : DLPNO-MP2, DLPNO-MP2 Gradient
   Christoph Reimann      : Effective Core Potentials
   Marius Retegan         : Local ZFS, SOC
   Christoph Riplinger    : Optimizer, TS searches, QM/MM, DLPNO-CCSD(T), (RO)-DLPNO pert. Triples
   Tobias Risthaus        : Range-separated hybrids, TD-DFT gradient, RPA, STAB
   Michael Roemelt        : Original ROCIS implementation
   Masaaki Saitow         : Open-shell DLPNO-CCSD energy and density
   Barbara Sandhoefer     : DKH picture change effects
   Avijit Sen             : IP-ROCIS
   Kantharuban Sivalingam : CASSCF convergence, NEVPT2, FIC-MRCI
   Bernardo de Souza      : ESD, SOC TD-DFT
   Georgi Stoychev        : AutoAux, RI-MP2 NMR, DLPNO-MP2 response
   Willem Van den Heuvel  : Paramagnetic NMR
   Boris Wezisla          : Elementary symmetry handling
   Frank Wennmohs         : Technical directorship


 We gratefully acknowledge several colleagues who have allowed us to
 interface, adapt or use parts of their codes:
   Stefan Grimme, W. Hujo, H. Kruse, P. Pracht,  : VdW corrections, initial TS optimization,
                  C. Bannwarth, S. Ehlert          DFT functionals, gCP, sTDA/sTD-DF
   Ed Valeev, F. Pavosevic, A. Kumar             : LibInt (2-el integral package), F12 methods
   Garnet Chan, S. Sharma, J. Yang, R. Olivares  : DMRG
   Ulf Ekstrom                                   : XCFun DFT Library
   Mihaly Kallay                                 : mrcc  (arbitrary order and MRCC methods)
   Jiri Pittner, Ondrej Demel                    : Mk-CCSD
   Frank Weinhold                                : gennbo (NPA and NBO analysis)
   Christopher J. Cramer and Donald G. Truhlar   : smd solvation model
   Lars Goerigk                                  : TD-DFT with DH, B97 family of functionals
   V. Asgeirsson, H. Jonsson                     : NEB implementation
   FAccTs GmbH                                   : IRC, NEB, NEB-TS, DLPNO-Multilevel, CI-OPT
                                                   MM, QMMM, 2- and 3-layer-ONIOM, Crystal-QMMM,
                                                   LR-CPCM, SF, NACMEs, symmetry and pop. for TD-DFT,
                                                   nearIR, NL-DFT gradient (VV10), updates on ESD,
                                                   ML-optimized integration grids
   S Lehtola, MJT Oliveira, MAL Marques          : LibXC Library
   Liviu Ungur et al                             : ANISO software


 Your calculation uses the libint2 library for the computation of 2-el integrals
 For citations please refer to: http://libint.valeyev.net

 Your ORCA version has been built with support for libXC version: 5.1.0
 For citations please refer to: https://tddft.org/programs/libxc/

 This ORCA versions uses:
   CBLAS   interface :  Fast vector & matrix operations
   LAPACKE interface :  Fast linear algebra routines
   SCALAPACK package :  Parallel linear algebra routines
   Shared memory     :  Shared parallel matrices
   BLAS/LAPACK       :  OpenBLAS 0.3.15  USE64BITINT DYNAMIC_ARCH NO_AFFINITY Haswell SINGLE_THREADED
        Core in use  :  Haswell
   Copyright (c) 2011-2014, The OpenBLAS Project




***************************************
The coordinates will be read from file: xtbopt.xyz
***************************************


Your calculation utilizes the atom-pairwise dispersion correction
with the Becke-Johnson damping scheme (D3BJ)
Cite in your paper:
S.Grimme, S.Ehrlich, L.Goerigk, J Comput Chem, (2011), 32, 1456–1465 
S.Grimme, J.Antony, S.Ehrlich and H.Krieg, J.Chem.Phys., 132, (2010), 154104 
   

Your calculation employs the composite approach B97-3c by Grimme and coworkers.
For the correct reference, please check the publication list of the Grimme group:
http://www.thch.uni-bonn.de/tc/index.php?section=publikationen&subsection=grimme#2017
   

XCFun DFT library Copyright 2009-2010 Ulf Ekstrom and contributors.
See http://admol.org/xcfun for more information.
This is free software; see the source code for copying conditions.
There is ABSOLUTELY NO WARRANTY; not even for MERCHANTABILITY or FITNESS FOR A PARTICULAR PURPOSE.
For details see the documentation.
Scientific users of this library should cite U. Ekstrom, L. Visscher, R. Bast, A. J. Thorvaldsen and K. Ruud;
J.Chem.Theor.Comp. 2010, DOI: 10.1021/ct100117s
XCFun Version 0.99 

Preparing ONIOM calculation             ...         done
================================================================================

----- Orbital basis set information -----
Your calculation utilizes the basis: def2-mTZVP
----- AuxJ basis set information -----
Your calculation utilizes the basis: def2-mTZVP/J
================================================================================
                                        WARNINGS
                       Please study these warnings very carefully!
================================================================================


WARNING: The environment variable RSH_COMMAND is not set!
  ===> : All Displacements for the Numerical Hessian or Gradient calculation
         will be started on localhost

WARNING: Geometry Optimization
  ===> : Switching off AutoStart
         For restart on a previous wavefunction, please use MOREAD

INFO   : the flag for use of the SHARK integral package has been found!

================================================================================
                                       INPUT FILE
================================================================================
NAME = grain_mol_opt.inp
|  1> !QM/XTB2 B97-3c tightopt
|  2> !NumFreq
|  3> %pal
|  4> nprocs 28
|  5> end
|  6> %qmmm
|  7> QMAtoms {438 439 440 501 502 503 600 601 602 603 604 605 } end 
|  8> ActiveAtoms {438 439 440 501 502 503 600 601 602 603 604 605 } end 
|  9> ExtendActiveRegion no
| 10> end
| 11> %geom
| 12> MaxIter 500
| 13> end
| 14> *xyzfile 0 1 xtbopt.xyz 
| 15> 
| 16> 
| 17>                          ****END OF INPUT****
================================================================================

------------------------------------------------------------------------------

                             **************************
                             *    2-layered ONIOM     *
                             **************************


------------------------------------------------------------------------------




Multiscale model                       ... QM1/QM2
QM2 method                             ... XTB2
Coupling Scheme                        ... subtractive
Embedding Scheme                       ... electrostatic
PrintLevel                             ... 1
Method for determining QM2 charges     ... Hirshfeld
Charge of total system                 ... 0
Charge alteration scheme               ... Charge shifting
Scaling factor for CS scheme           ... 0.06
Gradient projection scheme             ... Lever rule
Scaling factor for QM2 charges         ... 1.00
AutoFF method                          ... XTB2
AutoFF boundary                        ... no covalent bonds
Point charges in QM calc. from MM atoms... 594
              from charge shift scheme ... 0
Printing trajectories, xyz and allxyz files:
        QMMMRegion                     ... YES
        activeRegion                   ... YES
        activeRegionExt                ... NO
        qmRegion                       ... YES
        qm2Region                      ... NO
Parameter files:
        ORCA Forcefield Filename       ... grain_mol_opt_L_QM2.ORCAFF.prms.tmp
        QM-LA bond distances Filename  ... grain_mol_opt.H_DIST.prms.tmp
Forcefield type                        ... ORCA
Size of different subsystems (in atoms):
Size of QMMM System                    ... 606
Size of QM2 Subsystem                  ... 594
Size of QM1 Subsystem                  ... 12
Number of link atoms                   ... 0
Size of QM1 Subsystem plus link atoms  ... 12
Size of region for optimizer           ... 12
        optimized atoms = activeRegion ... 12
        fixed atoms (none)             ... 0
Composition of different systems (atoms start counting at 0):
QM1 Subsystem                          ... 438 439 440 501 502 503 600 601 602 603 
                                           604 605 
Active atoms                           ... 438 439 440 501 502 503 600 601 602 603 
                                           604 605 

                       *****************************
                       * Geometry Optimization Run *
                       *****************************

Geometry optimization settings:
Update method            Update   .... BFGS
Choice of coordinates    CoordSys .... Z-matrix Internals
Initial Hessian          InHess   .... Almoef's Model

Convergence Tolerances:
Energy Change            TolE     ....  1.0000e-06 Eh
Max. Gradient            TolMAXG  ....  1.0000e-04 Eh/bohr
RMS Gradient             TolRMSG  ....  3.0000e-05 Eh/bohr
Max. Displacement        TolMAXD  ....  1.0000e-03 bohr
RMS Displacement         TolRMSD  ....  6.0000e-04 bohr
Strict Convergence                ....  False
------------------------------------------------------------------------------
                        ORCA OPTIMIZATION COORDINATE SETUP
------------------------------------------------------------------------------

The optimization will be done in new redundant internal coordinates
Making redundant internal coordinates   ...  (new redundants) done
Evaluating the initial hessian          ...  (Almloef) done
Evaluating the coordinates              ...  done
Calculating the B-matrix                .... done
Calculating the G-matrix                .... done
Diagonalizing the G-matrix              .... done
Small eigenvalue found = 2.901e-02
The first mode is                       ....   45
The number of degrees of freedom        ....   30

    -----------------------------------------------------------------
                    Redundant Internal Coordinates


    -----------------------------------------------------------------
         Definition                    Initial Value    Approx d2E/dq
    -----------------------------------------------------------------
      1. B(O   1,H   0)                  0.9812         0.480926   
      2. B(H   2,O   1)                  0.9757         0.490732   
      3. B(O   4,H   2)                  1.7500         0.028546   
      4. B(O   4,H   3)                  0.9687         0.503534   
      5. B(H   5,H   2)                  2.2043         0.001150   
      6. B(H   5,O   4)                  0.9803         0.482661   
      7. B(O   7,C   6)                  1.4014         0.536615   
      8. B(H   8,C   6)                  1.0896         0.360623   
      9. B(H   9,O   7)                  0.9770         0.488430   
     10. B(H   9,O   4)                  1.8043         0.023388   
     11. B(H   9,H   3)                  2.1680         0.001314   
     12. B(H   9,H   5)                  2.2444         0.000992   
     13. B(H  10,C   6)                  1.0958         0.352469   
     14. B(H  11,C   6)                  1.0959         0.352323   
     15. A(H   0,O   1,H   2)          106.0764         0.314782   
     16. A(O   1,H   2,O   4)          167.8150         0.208146   
     17. A(O   1,H   2,H   5)          144.2729         0.135596   
     18. A(O   4,H   2,H   5)           25.5518         0.113477   
     19. A(O   4,H   3,H   9)           55.4289         0.137301   
     20. A(H   2,O   4,H   3)          117.2507         0.208843   
     21. A(H   5,O   4,H   9)          103.4235         0.202465   
     22. A(H   3,O   4,H   9)           98.3327         0.203557   
     23. A(H   2,O   4,H   9)          126.2819         0.148827   
     24. A(H   3,O   4,H   5)          105.2664         0.316287   
     25. A(H   2,O   4,H   5)          104.0919         0.207700   
     26. A(H   2,H   5,O   4)           50.3563         0.135421   
     27. A(H   2,H   5,H   9)           90.9183         0.098258   
     28. A(O   4,H   5,H   9)           51.4371         0.133897   
     29. A(O   7,C   6,H  11)          111.6403         0.341070   
     30. A(O   7,C   6,H   8)          107.2596         0.342402   
     31. A(H   8,C   6,H  10)          108.7999         0.289929   
     32. A(O   7,C   6,H  10)          111.6626         0.341094   
     33. A(H  10,C   6,H  11)          108.6427         0.288873   
     34. A(H   8,C   6,H  11)          108.7549         0.289910   
     35. A(C   6,O   7,H   9)          108.0062         0.357250   
     36. A(O   4,H   9,H   5)           25.1394         0.111629   
     37. A(H   3,H   9,H   5)           41.0577         0.098541   
     38. A(H   5,H   9,O   7)          152.8598         0.134018   
     39. A(H   3,H   9,O   4)           26.2385         0.113113   
     40. A(H   3,H   9,O   7)          151.9456         0.136970   
     41. D(H   5,H   2,O   1,H   0)    -26.0658         0.297879   
     42. D(O   4,H   2,O   1,H   0)      2.0765         0.297879   
     43. D(H   9,O   4,H   2,O   1)   -158.4462         0.002036   
     44. D(H   5,O   4,H   3,H   9)   -106.4502         0.352982   
     45. D(H   3,O   4,H   2,H   5)    115.7640         0.002036   
     46. D(H   3,O   4,H   2,O   1)     76.0814         0.002036   
     47. D(H   5,O   4,H   2,O   1)    -39.6826         0.002036   
     48. D(H   2,O   4,H   3,H   9)    138.4326         0.352982   
     49. D(H   9,O   4,H   2,H   5)   -118.7637         0.002036   
     50. D(H   9,H   5,O   4,H   3)    102.6845         0.345504   
     51. D(H   2,H   5,O   4,H   3)   -123.9091         0.345504   
     52. D(H   9,H   5,H   2,O   4)     34.6206         0.001513   
     53. D(H   2,H   5,O   4,H   9)    133.4064         0.345504   
     54. D(O   4,H   5,H   2,O   1)    166.6554         0.001513   
     55. D(H   9,H   5,H   2,O   1)   -158.7240         0.001513   
     56. D(H   9,H   5,O   4,H   2)   -133.4064         0.345504   
     57. D(H   9,O   7,C   6,H  11)     61.6988         0.022894   
     58. D(H   9,O   7,C   6,H  10)    -60.1461         0.022894   
     59. D(H   9,O   7,C   6,H   8)   -179.2575         0.022894   
     60. D(C   6,O   7,O   4,H   2)      7.9113         0.001501   
     61. D(C   6,O   7,O   4,H   5)   -111.2158         0.001501   
     62. D(C   6,O   7,O   4,H   3)    141.1356         0.001501   
     63. D(O   7,H   9,H   5,H   2)    151.2716         0.001511   
     64. D(O   7,H   9,H   5,O   4)   -174.7075         0.001511   
     65. D(H   5,H   9,O   4,H   2)    119.0600         0.001882   
     66. D(H   5,H   9,O   4,H   3)   -107.9718         0.001882   
     67. D(H   3,H   9,O   4,H   2)   -132.9682         0.001882   
     68. D(H   3,H   9,O   4,H   5)    107.9718         0.001882   
     69. D(H   5,H   9,H   3,O   4)     37.9686         0.001517   
     70. D(H   3,H   9,H   5,O   4)    -39.8115         0.001511   
     71. D(O   7,H   9,H   3,O   4)    174.5683         0.001517   
     72. D(H   5,H   9,O   7,C   6)   -115.9730         0.326370   
     73. D(H   3,H   9,O   7,C   6)    145.6425         0.326370   
     74. D(O   4,H   9,H   5,H   2)    -34.0209         0.001511   
     75. D(H   3,H   9,H   5,H   2)    -73.8323         0.001511   
    -----------------------------------------------------------------

Number of atoms                         .... 12
Number of degrees of freedom            .... 75

         *************************************************************
         *                GEOMETRY OPTIMIZATION CYCLE   1            *
         *************************************************************
                    ************************************                      
                    *       QM/   XTB2 SP Energy       *                      
                    ************************************                      


------------------------------------------------------------------------------
                          XTB2 - FULL SYSTEM                         
------------------------------------------------------------------------------
Running XTB calculation
---------------------------------
CARTESIAN COORDINATES (ANGSTROEM)
---------------------------------
  H     0.203478    3.037947   -0.677856
  O     0.725803    2.369797   -1.171848
  H     1.664685    2.497175   -0.897430
  H    -0.079777   -1.306593    3.144192
  O     0.312539   -0.606012    2.600509
  H    -0.163696    0.207790    2.835572
  H    -2.396580    2.419991   -0.538174
  O    -2.187499    1.947736    0.285221
  H    -2.203005    1.000380    0.058677
  H    -4.664673    0.554032    2.175409
  O    -4.983557   -0.378917    2.185364
  H    -4.476685   -0.855933    1.520106
  H     0.062182   -0.304603    0.946158
  O    -0.135440   -0.065857    0.019766
  H     0.206102    0.830223   -0.099142
  H    -0.160755   -3.578028    3.766959
  O    -0.439450   -2.748427    4.188596
  H     0.206429   -2.579555    4.891090
  H    -4.885443    2.539368    1.326751
  O    -4.247153    2.127283    1.940972
  H    -3.403812    2.110151    1.429097
  H    -3.244391    3.911541   -2.211824
  O    -2.508249    3.312497   -1.981618
  H    -2.148817    3.026800   -2.841599
  H    -0.130117   -3.799929    0.491799
  O     0.209987   -2.983245    0.910978
  H    -0.576846   -2.496788    1.223815
  H    -2.381382   -1.534789    2.460872
  O    -2.193859   -1.999862    1.618971
  H    -2.449547   -1.410192    0.890661
  H     2.071111   -1.437811   -1.127383
  O     2.301769   -1.692370   -0.210163
  H     1.512097   -2.120065    0.172405
  H    -1.390459    1.828774    1.909618
  O    -1.484467    1.429239    2.784523
  H    -1.468930    2.140012    3.451219
  H     0.205946   -2.694743   -1.579657
  O    -0.549740   -2.082840   -1.632922
  H    -0.369373   -1.357331   -0.998127
  H    -3.439558   -2.914879   -0.402218
  O    -2.725032   -3.406938   -0.827535
  H    -2.011988   -2.777633   -1.040985
  H     2.769801    0.126357    2.930497
  O     2.867771   -0.058265    3.891912
  H     2.960096    0.833675    4.298463
  H    -3.523869    6.390862   -0.538394
  O    -3.284549    7.054275   -1.237394
  H    -3.141915    7.898499   -0.765668
  H     3.900558    0.583387    1.184356
  O     2.949707    0.402365    1.299426
  H     2.712283   -0.348689    0.718408
  H    -5.780989    0.858451   -1.610951
  O    -4.870116    1.183975   -1.484369
  H    -4.979778    2.011958   -0.971517
  H    -1.208963    5.400344    2.214100
  O    -1.834574    4.653924    2.095769
  H    -1.913097    4.233872    2.957556
  H     3.494774    2.764290    0.427185
  O     3.246760    2.723254   -0.512062
  H     3.579229    1.881232   -0.864067
  H     1.487030   -4.688984   -2.263618
  O     1.551003   -3.912400   -1.689353
  H     2.346753   -3.451677   -2.038700
  H    -0.920945   -0.073491   -2.552673
  O    -0.287202    0.579290   -2.876514
  H    -0.025415    1.160153   -2.138794
  H     1.693325   -4.681375   -0.192133
  O     1.798455   -5.319550    0.549771
  H     1.335208   -6.130088    0.251703
  H    -1.227152   -3.253359   -2.889706
  O    -1.059463   -3.935552   -3.553131
  H    -0.930306   -4.783910   -3.087080
  H    -2.781268    3.309118    4.704094
  O    -1.800072    3.305128    4.670385
  H    -1.508052    2.901716    5.506149
  H     0.963288    5.032076    4.080549
  O     0.017362    5.264956    4.132622
  H    -0.455313    4.461717    4.388948
  H    -1.737141   -4.642536   -0.386171
  O    -0.972650   -5.184379   -0.102186
  H    -1.320207   -5.872149    0.475048
  H    -3.911998    5.846906   -2.594625
  O    -4.263421    5.013880   -2.926523
  H    -4.107521    4.981012   -3.894637
  H    -2.436875   -3.684611    1.923361
  O    -2.456892   -4.589966    2.296224
  H    -1.517389   -4.829216    2.437530
  H    -4.697807   -2.964128   -2.908194
  O    -3.848432   -3.198944   -3.319696
  H    -3.513809   -3.991014   -2.853436
  H     0.336699    1.373897    4.612703
  O     0.843176    2.134227    4.280280
  H     0.892863    2.791736    4.988474
  H    -4.659386   -5.157652   -1.586832
  O    -5.363849   -4.804566   -1.015816
  H    -5.151794   -5.158431   -0.130794
  H     2.319883   -6.471398   -4.055120
  O     1.982849   -6.143702   -3.201030
  H     2.416584   -6.719410   -2.538951
  H     0.463855   -3.366709   -4.016932
  O     1.266908   -2.998984   -4.438019
  H     0.949235   -2.626344   -5.286795
  H     1.959469   -1.754668    2.974567
  O     2.113356   -2.685408    2.755683
  H     1.427808   -2.896938    2.087817
  H    -3.016524   -1.794040   -3.219368
  O    -2.594250   -0.908468   -3.153122
  H    -3.248157   -0.260445   -3.471671
  H    -3.187583    4.982920    1.082130
  O    -3.969013    5.357517    0.628030
  H    -4.383643    5.914882    1.335022
  H     0.875488    2.253751    2.590449
  O     0.976459    2.250393    1.619232
  H     1.703360    1.627277    1.454300
  H     0.195016    5.664120   -0.752852
  O     0.717223    6.326359   -1.260499
  H     0.860177    7.125046   -0.703274
  H     0.347274    7.036843    2.598740
  O    -0.015006    6.658038    1.780626
  H     0.648648    5.987479    1.518171
  H    -2.483089    0.217670    3.334960
  O    -2.706045   -0.597389    3.837798
  H    -1.945972   -0.638572    4.460136
  H    -0.898280    0.549524    6.020593
  O    -0.624785    0.030996    5.245320
  H     0.088357   -0.573410    5.531203
  H     0.702010   -4.993030    1.966248
  O     0.158386   -5.103593    2.769723
  H     0.302706   -6.024662    3.040654
  H    -2.128781   -8.081329    0.426890
  O    -1.806568   -7.594333    1.212792
  H    -2.592674   -7.284139    1.669776
  H    -0.372973    6.874503   -2.318271
  O    -1.118929    7.295878   -2.817103
  H    -1.909122    7.169480   -2.253868
  H    -1.111016    4.315704    0.576146
  O    -0.737836    4.377795   -0.319784
  H    -1.444453    4.137990   -0.952816
  H    -4.410113    2.751433    3.504712
  O    -4.409122    2.919987    4.469540
  H    -4.493349    2.036311    4.877051
  H     2.016693   -3.586659    4.233440
  O     1.951607   -4.060392    5.085706
  H     2.459353   -3.525734    5.717563
  H     4.682555   -3.195744    0.830193
  O     4.522477   -3.118084   -0.136201
  H     3.664223   -2.639719   -0.219122
  H    -2.723940   -0.736684   -1.359327
  O    -3.052919   -0.469113   -0.484885
  H    -3.851609    0.059511   -0.691282
  H    -1.615759   -0.743905   -4.637515
  O    -1.110202   -0.527624   -5.441928
  H    -0.398960    0.067451   -5.156818
  H     1.793332   -1.704766   -3.384842
  O     1.885450   -0.959386   -2.759882
  H     1.109309   -0.380861   -2.891041
  H     3.656906   -3.125493    2.541350
  O     4.615698   -3.355193    2.468179
  H     4.669574   -4.315627    2.593193
  H     3.416523   -6.125434    3.108190
  O     3.772682   -5.923229    2.208501
  H     3.035811   -5.575819    1.665958
  H    -3.342001    1.627179   -4.182348
  O    -4.187239    1.156056   -3.992291
  H    -4.405123    1.302302   -3.035736
  H    -5.079518    4.158745    0.066818
  O    -5.519205    3.293409   -0.039166
  H    -6.449402    3.414826   -0.320270
  H     6.731635   -1.181473   -1.367304
  O     5.959201   -1.032061   -0.815646
  H     5.539436   -1.899810   -0.619887
  H     4.589643   -3.164053   -2.479567
  O     3.721993   -2.991209   -2.895425
  H     3.725414   -3.608511   -3.652902
  H     4.427971   -2.303530    5.614182
  O     4.083922   -2.770316    6.406115
  H     4.418407   -3.675413    6.323026
  H    -0.751606    6.335217    5.081185
  O    -1.348068    6.910604    5.620005
  H    -1.360302    7.788539    5.180204
  H     4.697349   -0.133281   -1.469908
  O     3.930445    0.410264   -1.731924
  H     3.237757   -0.189137   -2.063544
  H    -0.737859    4.537658   -4.034697
  O    -1.520281    5.081541   -4.241644
  H    -1.367877    5.947496   -3.817904
  H     0.662359    3.213668   -2.657298
  O     0.669760    3.591830   -3.565184
  H     0.717323    2.829447   -4.152062
  H    -5.392279   -5.184677    1.777279
  O    -4.696593   -5.778323    1.418543
  H    -3.855209   -5.365618    1.691915
  H     7.879190   -1.686540   -4.038986
  O     7.621280   -1.374574   -3.138840
  H     7.135541   -0.529890   -3.294131
  H     3.695957   -5.061288   -5.303561
  O     4.458289   -4.689417   -4.820987
  H     4.842022   -5.402128   -4.276893
  H    -3.788478    0.019064    4.927844
  O    -4.389219    0.482655    5.560718
  H    -5.050034   -0.175262    5.851514
  H     3.456126   -5.940111   -0.534500
  O     4.329255   -5.693106   -0.851196
  H     4.406517   -4.731133   -0.705890
  H     4.999991   -0.328542   -4.164380
  O     4.463612   -1.038341   -4.555616
  H     4.137088   -1.622968   -3.839057
  H    -1.171553    1.586427   -3.939738
  O    -1.822139    2.207277   -4.324889
  H    -1.463360    2.540878   -5.170109
  H     4.877126   -6.317999   -2.330059
  O     5.209966   -6.641531   -3.196149
  H     6.027254   -7.123926   -3.010143
  H     8.733709   -5.091242   -2.929493
  O     8.041785   -5.509106   -2.372027
  H     8.075294   -6.466292   -2.475926
  H     2.341042    4.721918    0.455720
  O     1.761291    4.703163    1.226513
  H     1.403010    3.783122    1.302447
  H    -4.422411   -2.631473    4.219400
  O    -5.316027   -2.291125    4.016414
  H    -5.177961   -1.508448    3.443337
  H    -5.852311   -3.185271    1.304379
  O    -6.317183   -3.742695    1.970786
  H    -6.127761   -3.309705    2.822553
  H     1.685164    3.460223    6.864085
  O     1.062835    3.977150    6.330838
  H     0.279956    4.130322    6.902556
  H     4.994837   -2.175850    3.608879
  O     5.015666   -1.458804    4.274312
  H     4.204552   -0.901395    4.118255
  H     2.380020   -5.582512    4.824108
  O     2.759142   -6.466260    4.562587
  H     2.013620   -7.046782    4.387310
  H     2.252157   -4.501495   -6.803558
  O     2.082997   -4.990487   -5.988305
  H     1.818888   -4.300328   -5.332040
  H     6.433131   -4.104300   -0.513837
  O     7.185674   -4.508846   -0.050801
  H     7.692887   -4.930952   -0.772062
  H    -1.725837    4.484135    7.703009
  O    -0.827023    4.580558    8.088870
  H    -0.645039    5.539494    8.115089
  H    -5.112769    5.714838   -5.593845
  O    -4.506392    4.950381   -5.615138
  H    -3.748532    5.164968   -6.180378
  H     3.279055   -2.511194   -8.446064
  O     3.190567   -3.043525   -7.644627
  H     4.067511   -3.021947   -7.216424
  H    -0.651894    8.837638   -2.268585
  O    -0.528442    9.664998   -1.748152
  H     0.233567    9.488945   -1.171536
  H     2.060852   -0.918460    5.205470
  O     1.486881   -1.444546    5.791561
  H     1.581172   -1.101287    6.689526
  H     5.203215   -2.014721   -5.700257
  O     5.548984   -2.780452   -6.223167
  H     5.273830   -3.571061   -5.707291
  H     5.685211   -5.224189    4.673560
  O     5.162669   -5.140008    5.500174
  H     4.440751   -5.771355    5.413383
  H    -3.978420    1.144193    7.002185
  O    -3.786150    1.618284    7.846843
  H    -4.661895    2.004492    8.108048
  H    -1.843224    9.624007   -0.735172
  O    -2.704029    9.497490   -0.261346
  H    -3.314322   10.127472   -0.648182
  H    -5.944648    4.707533   -2.938349
  O    -6.853574    4.589085   -3.282301
  H    -6.763586    3.888423   -3.961041
  H     0.084603   -7.057196   -1.161365
  O     0.548092   -7.494227   -0.413935
  H    -0.131395   -7.690206    0.234197
  H    -7.635210    3.809420   -1.975106
  O    -7.897876    3.221120   -1.236411
  H    -7.755119    2.313204   -1.577428
  H     3.967285   -0.903582    6.981080
  O     3.976733    0.060581    6.973490
  H     4.789580    0.350434    6.542870
  H     2.262425    5.801549   -1.174289
  O     3.197529    5.507578   -1.060080
  H     3.374004    4.968774   -1.854218
  H     6.541273   -5.932819    0.658596
  O     6.171719   -6.669618    1.191009
  H     5.267348   -6.392069    1.417780
  H    -3.869173    4.726055    7.782232
  O    -3.302938    4.263764    7.122491
  H    -3.497203    3.320364    7.231516
  H     5.751011   -7.947055    0.120807
  O     5.462558   -8.632884   -0.517768
  H     4.633999   -8.305820   -0.912001
  H    -0.560927    2.035164    7.691291
  O    -1.194058    1.972314    6.955931
  H    -2.062749    1.831052    7.352134
  H    -6.384755   -0.109365    1.053635
  O    -6.706315   -0.193367    0.141037
  H    -7.625968   -0.460583    0.161006
  H    -5.378585   -3.051106   -0.600804
  O    -5.125310   -2.350166    0.025566
  H    -5.694757   -1.575995   -0.158775
  H     4.320828    5.578313    0.325919
  O     4.654390    5.677044    1.231455
  H     3.960313    6.187390    1.684291
  H    -9.049686   -1.725006   -2.262406
  O    -8.498336   -1.527411   -1.478496
  H    -8.628055   -2.263153   -0.839990
  H    -5.522371    3.492578   -5.528925
  O    -6.039944    2.780877   -5.115949
  H    -5.373459    2.195134   -4.702837
  H     3.178507   -0.876630   -5.661118
  O     2.322356   -0.995179   -6.126849
  H     2.407828   -1.843110   -6.602515
  H     8.112207   -1.343032   -6.034072
  O     8.119288   -2.207626   -5.578753
  H     7.262884   -2.606457   -5.830501
  H     7.620923    0.998612   -6.311231
  O     7.431263    0.151074   -6.725679
  H     6.449898    0.102117   -6.762532
  H    -7.868425   -3.677726    0.917789
  O    -8.545703   -3.569486    0.232287
  H    -8.449012   -4.329649   -0.368218
  H    -2.401313    8.743581    1.301565
  O    -2.251521    8.153502    2.053605
  H    -1.481692    7.600145    1.830265
  H    -4.441028    6.441036    3.500972
  O    -4.610601    6.868275    2.644935
  H    -3.846709    7.453927    2.506551
  H     3.402784    3.454560   -3.575821
  O     3.250342    4.423787   -3.480679
  H     2.285654    4.489747   -3.588785
  H    -6.119343   -1.585174   -3.451731
  O    -6.206882   -2.172155   -2.673780
  H    -6.986578   -1.861427   -2.159894
  H     6.464386    1.040420    4.738171
  O     6.070549    1.578386    5.441846
  H     6.259607    2.497374    5.152471
  H     1.361960    1.736014   -5.824684
  O     1.166040    1.138915   -5.071654
  H     1.529770    0.276241   -5.342688
  H    -2.492704    2.954939   10.482948
  O    -2.281465    2.047544   10.208168
  H    -2.879148    1.849823    9.475276
  H     7.622931   -0.505721    3.079788
  O     6.873334    0.070335    3.249249
  H     6.180466   -0.529946    3.627585
  H    -5.670768   -8.040797   -0.721330
  O    -4.936859   -8.110792   -0.074442
  H    -4.939979   -7.294554    0.449087
  H    -5.178685   -0.099413   -4.722330
  O    -5.796891   -0.810154   -4.963446
  H    -6.633704   -0.365505   -5.161478
  H     1.889081   -0.182295   -7.520140
  O     1.688035    0.291690   -8.362917
  H     2.263627   -0.113376   -9.017118
  H     4.870274   -1.377343   -9.310457
  O     3.945560   -1.146504   -9.592224
  H     3.924793   -1.264185  -10.541311
  H     7.556454   -2.580637    4.192935
  O     7.703483   -2.615194    3.233432
  H     7.209569   -3.405197    2.960112
  H     6.710250   -5.901280    2.671891
  O     6.772318   -5.227315    3.374219
  H     7.648036   -5.313949    3.792142
  H    -1.815468    8.950272    3.506070
  O    -1.567766    9.253137    4.405009
  H    -2.416555    9.385912    4.860404
  H    -7.389870    1.590196   -5.255673
  O    -7.965700    0.846116   -5.012213
  H    -8.866769    1.247890   -4.935558
  H     6.924634   -1.071118   -8.409155
  O     6.341786   -1.790941   -8.674108
  H     6.113330   -2.242190   -7.843103
  H    -1.671195    6.260606   -7.018259
  O    -2.070382    5.435702   -6.745478
  H    -1.821761    5.303197   -5.782188
  H    -0.001721    3.302509    9.023737
  O     0.194089    2.382054    9.277271
  H    -0.604622    2.118041    9.783187
  H     6.750715   -2.777144   -2.712696
  O     6.219359   -3.521322   -2.372907
  H     6.687080   -4.332258   -2.620632
  H    -4.082836   -3.053355   -4.947980
  O    -4.253819   -2.950622   -5.911984
  H    -4.786547   -2.147674   -5.971342
  H     1.976627    2.173960    8.464597
  O     2.640562    2.286735    7.774674
  H     3.062086    1.416303    7.658177
  H    -6.916037   -5.184682   -1.410672
  O    -7.832556   -5.451378   -1.657817
  H    -7.966623   -5.048384   -2.538722
  H    -3.826486    5.257971    5.699676
  O    -3.792830    6.027091    5.109816
  H    -2.858623    6.320556    5.204761
  H    -7.888163    0.106937   -1.973324
  O    -7.396225    0.829085   -2.386505
  H    -7.625380    0.821273   -3.339526
  H     5.834326    0.128877    0.408980
  O     5.612751    0.849563    1.030977
  H     6.122733    0.652706    1.843690
  H    -6.217306    3.313144    7.394775
  O    -6.090161    2.793378    8.222576
  H    -6.691317    2.032936    8.133066
  H     2.266209   -8.069245   -0.859917
  O     2.943202   -8.055801   -1.556061
  H     2.717767   -8.768606   -2.170595
  H    -2.747929   -3.942337   -6.214221
  O    -1.999749   -4.511481   -5.975356
  H    -1.721849   -4.219342   -5.078994
  H    -5.644555    3.766211    5.308849
  O    -6.293685    4.162356    5.926243
  H    -6.128772    5.106200    5.914876
  H    -1.028784   -7.101273   -3.180825
  O    -0.556561   -6.432666   -2.650723
  H     0.351578   -6.364385   -3.030716
  H     4.441880    2.009712    5.128821
  O     3.500488    2.250216    5.008825
  H     3.116089    2.265554    5.890689
  H     4.109483    4.648944    6.305206
  O     4.191251    5.379997    5.688320
  H     3.623589    5.141305    4.916914
  H     2.764472    3.614570    3.924908
  O     2.587760    4.555078    3.760328
  H     2.468794    4.655315    2.794032
  H     9.390852    0.208200   -1.072811
  O     8.584818    0.371283   -0.579320
  H     8.407974   -0.448118   -0.087500
  H    -2.101738    5.313241   10.654100
  O    -2.824524    4.685115   10.884231
  H    -3.043005    4.861285   11.799589
  H     7.966303   -3.012946    0.320310
  O     8.388157   -2.167069    0.576918
  H     8.322193   -2.163678    1.539221
  H     5.370478    3.659753    3.527931
  O     6.026801    3.923337    4.194765
  H     5.614889    4.641119    4.697496
  H    -4.209819    5.019231    9.787103
  O    -4.842541    5.171732    9.065065
  H    -5.455223    4.423801    9.061554
  H    -7.010245   -3.455092   -3.504292
  O    -7.621895   -4.070266   -3.962854
  H    -7.092195   -4.514758   -4.651277
  H     0.027634    6.119116   10.776181
  O    -0.836565    6.451705   10.529165
  H    -0.720079    6.883563    9.663596
  H     2.588790    1.505336   -4.106950
  O     3.467288    1.857037   -3.867467
  H     3.787151    1.340509   -3.097757
  H    -6.978612   -0.214640    7.212729
  O    -7.486372    0.564036    7.493966
  H    -8.109171    0.749245    6.790010
  H    -2.755828   -9.862629   -0.851814
  O    -2.692366   -8.920540   -1.008972
  H    -3.597726   -8.554412   -0.768180
  H   -10.067045    3.101124   -4.902152
  O   -10.184520    2.183600   -4.621601
  H   -10.400866    2.268206   -3.671902
  H    -2.075833   -3.022368    4.604198
  O    -2.951568   -3.461221    4.672551
  H    -2.945580   -4.078412    3.915849
  H    -0.191178   -7.979952    2.468234
  O     0.635104   -7.770572    2.916745
  H     1.353469   -8.066620    2.330027
  H     6.698079   -2.386900    6.386175
  O     7.146704   -3.096546    5.921663
  H     6.515902   -3.830598    5.882080
  H    -5.280007   -2.000772    6.934642
  O    -5.955654   -1.501384    6.451091
  H    -5.939716   -1.877220    5.541555
  H     0.838323    3.049565   -7.114504
  O     1.755406    2.717470   -7.170352
  H     1.741178    1.971103   -7.797661
  H    -3.950140    8.758550    6.680544
  O    -3.948177    8.757605    5.723174
  H    -4.074325    7.830545    5.454251
  H    -2.050585   10.327671   -2.726688
  O    -2.952026   10.510454   -3.028422
  H    -2.879613   11.145552   -3.740242
  H     9.401497   -4.072282    4.035918
  O     9.120660   -4.750909    4.657454
  H     8.691720   -4.279025    5.382230
  H    -0.742676   -5.982887   -5.857906
  O    -0.040631   -6.547049   -5.517715
  H     0.795683   -6.088820   -5.738692
  H     1.831567    8.279119    0.672881
  O     1.528676    8.602446   -0.204290
  H     2.343482    8.640403   -0.734605
  H     3.500174    2.942780   -6.661695
  O     4.327387    2.651272   -6.252586
  H     4.081710    2.376232   -5.344278
  H     3.738483    7.129338   -1.222713
  O     3.945213    8.065141   -1.434831
  H     4.314651    8.009864   -2.328126
  H     4.393986    0.006025   -7.915498
  O     4.770631    0.150847   -7.045616
  H     4.590145    1.082710   -6.801154
  H     6.029746    1.933309   -0.475571
  O     6.595285    2.127040   -1.237027
  H     7.419315    1.646120   -1.043805
  H     6.671588   -8.430443   -1.622881
  O     7.307996   -8.219158   -2.358807
  H     7.673703   -9.053295   -2.648308
  H    -5.235625   -5.761082   -5.395137
  O    -5.863169   -5.111281   -5.744989
  H    -5.324869   -4.319161   -5.954013
  H     0.685390    7.168477    7.607757
  O    -0.216210    7.196395    7.967098
  H    -0.771527    7.213075    7.149551
  H    -8.902724   -2.806623   -4.118949
  O    -9.422383   -2.000231   -3.946745
  H    -9.137239   -1.330796   -4.572597
  H    -2.419560   -5.974391   -2.155062
  O    -3.297033   -5.686889   -2.425110
  H    -3.481020   -6.062373   -3.311027
  H    -2.994708   -5.881408   -5.428757
  O    -3.598263   -6.482658   -4.948565
  H    -3.126656   -7.310956   -4.792626
  H    -1.388055    3.746250   -6.982273
  O    -0.849281    2.989400   -6.711541
  H    -1.085983    2.205479   -7.263431
  H    -0.205032    0.437718   -8.220824
  O    -1.100422    0.674089   -7.936148
  H    -1.276171    0.148653   -7.139748
  H   -10.421449    4.076773   -2.735206
  O   -10.489070    3.296422   -2.169357
  H    -9.660338    3.269477   -1.659430
  H     4.581212    4.079449    1.723149
  O     4.371673    3.158225    1.999960
  H     5.087074    2.582001    1.718111
  H     6.484953    1.403817   -4.220728
  O     6.180864    0.779147   -3.527680
  H     6.212416    1.273305   -2.683161
  H     9.627272   -2.229344   -0.935414
  O     9.904359   -2.013539   -1.834710
  H     9.104393   -1.673589   -2.277895
  H     9.962935   -3.321165   -3.106251
  O     9.695132   -3.971938   -3.782069
  H     9.302253   -3.462926   -4.501791
  H    -7.708621   -8.558235   -1.686039
  O    -6.972695   -7.961784   -1.815753
  H    -7.350921   -7.049849   -1.799731
  H     4.165106    6.089048   -3.815491
  O     4.826851    6.789484   -3.729044
  H     5.662615    6.334468   -3.592392
  H     0.086064   -8.155447   -5.233316
  O     0.108224   -9.138318   -5.101075
  H     0.253429   -9.502438   -5.974435
  H    -2.345440   -8.659579   -2.737085
  O    -2.114278   -8.391256   -3.645715
  H    -1.469362   -9.009006   -4.009422
  H     2.168792  -10.806437   -3.517536
  O     2.122825   -9.851972   -3.490163
  H     1.338357   -9.579597   -4.017206
  H     6.837226    3.336722   -4.572817
  O     6.894703    2.659347   -5.274481
  H     6.101610    2.794156   -5.815323
  H    -3.573655   -3.722557    7.710179
  O    -3.687559   -2.934169    7.180900
  H    -3.435848   -3.172138    6.262479
  H    -0.641839   -3.344448   -6.737397
  O    -0.011564   -2.613313   -6.739222
  H    -0.493601   -1.837877   -6.398432
  H     0.636864    0.454412    8.748859
  O     0.643558   -0.259453    8.107236
  H    -0.278991   -0.547123    8.019142
  H    -5.828056    7.389314   -4.246388
  O    -6.331694    6.771646   -4.808156
  H    -6.619753    6.040661   -4.217820
  H    -4.271414    9.120862   -3.255334
  O    -4.807860    8.325054   -3.150175
  H    -4.399984    7.844267   -2.411806
  H    -9.707773    5.822632   -4.643660
  O   -10.241949    5.018056   -4.481950
  H   -11.122291    5.220913   -4.800256
  H     2.771187    6.510675    6.146101
  O     1.811165    6.608080    6.243907
  H     1.466645    5.695270    6.140102
  H     4.809796    8.549137    0.093286
  O     5.126879    8.548227    1.014330
  H     5.533050    7.683382    1.143994
  H     4.131913   -7.417456   -4.357709
  O     3.373019   -7.699673   -4.900095
  H     3.091944   -8.541501   -4.526496
  H     0.382482    8.660554    4.242922
  O     1.059373    8.015402    4.013868
  H     1.285360    7.521221    4.827868
  H     5.237295    4.197349   -3.154948
  O     6.198686    4.166370   -3.101954
  H     6.406893    3.583462   -2.355064
  H    -2.584921   -1.545683    7.565885
  O    -2.073762   -0.753267    7.786794
  H    -2.698676   -0.126936    8.162332
  H    -9.021606    7.961856   -4.141127
  O    -8.959147    7.377174   -4.897892
  H    -8.002202    7.213103   -5.033874
  H     3.515846   -8.978823    1.072714
  O     2.840095   -8.346467    1.322629
  H     3.315894   -7.542233    1.603666
  H     3.589633    8.172651    1.837668
  O     2.798436    7.609880    1.949055
  H     2.352451    7.844894    2.775506
  C    -7.592739   -6.159752   -8.618596
  O    -6.246943   -6.269388   -8.243391
  H    -7.694461   -6.626867   -9.597726
  H    -6.145623   -5.863912   -7.360270
  H    -8.253038   -6.674386   -7.911488
  H    -7.907466   -5.112635   -8.693323

----------------------------
CARTESIAN COORDINATES (A.U.)
----------------------------
  NO LB    ZA    FRAG    MASS        X           Y           Z
   0 H   1.0000    0     1.008    0.384518    5.740888   -1.280963
   1 O   8.0000    0    15.999    1.371569    4.478267   -2.214473
   2 H   1.0000    0     1.008    3.145799    4.718976   -1.695896
   3 H   1.0000    0     1.008   -0.150756   -2.469103    5.941662
   4 O   8.0000    0    15.999    0.590613   -1.145196    4.914249
   5 H   1.0000    0     1.008   -0.309340    0.392667    5.358454
   6 H   1.0000    0     1.008   -4.528881    4.573120   -1.017002
   7 O   8.0000    0    15.999   -4.133773    3.680687    0.538989
   8 H   1.0000    0     1.008   -4.163076    1.890445    0.110883
   9 H   1.0000    0     1.008   -8.814954    1.046968    4.110927
  10 O   8.0000    0    15.999   -9.417559   -0.716049    4.129739
  11 H   1.0000    0     1.008   -8.459709   -1.617479    2.872585
  12 H   1.0000    0     1.008    0.117507   -0.575617    1.787980
  13 O   8.0000    0    15.999   -0.255944   -0.124451    0.037352
  14 H   1.0000    0     1.008    0.389476    1.568893   -0.187352
  15 H   1.0000    0     1.008   -0.303783   -6.761494    7.118521
  16 O   8.0000    0    15.999   -0.830440   -5.193773    7.915299
  17 H   1.0000    0     1.008    0.390094   -4.874653    9.242821
  18 H   1.0000    0     1.008   -9.232149    4.798709    2.507197
  19 O   8.0000    0    15.999   -8.025956    4.019983    3.667905
  20 H   1.0000    0     1.008   -6.432272    3.987607    2.700602
  21 H   1.0000    0     1.008   -6.131011    7.391741   -4.179742
  22 O   8.0000    0    15.999   -4.739903    6.259712   -3.744715
  23 H   1.0000    0     1.008   -4.060675    5.719823   -5.369843
  24 H   1.0000    0     1.008   -0.245886   -7.180826    0.929365
  25 O   8.0000    0    15.999    0.396818   -5.637517    1.721500
  26 H   1.0000    0     1.008   -1.090081   -4.718245    2.312676
  27 H   1.0000    0     1.008   -4.500161   -2.900330    4.650375
  28 O   8.0000    0    15.999   -4.145793   -3.779191    3.059413
  29 H   1.0000    0     1.008   -4.628973   -2.664876    1.683105
  30 H   1.0000    0     1.008    3.913832   -2.717068   -2.130445
  31 O   8.0000    0    15.999    4.349714   -3.198116   -0.397151
  32 H   1.0000    0     1.008    2.857448   -4.006342    0.325798
  33 H   1.0000    0     1.008   -2.627587    3.455883    3.608654
  34 O   8.0000    0    15.999   -2.805236    2.700870    5.261985
  35 H   1.0000    0     1.008   -2.775876    4.044037    6.521859
  36 H   1.0000    0     1.008    0.389182   -5.092326   -2.985119
  37 O   8.0000    0    15.999   -1.038858   -3.935998   -3.085775
  38 H   1.0000    0     1.008   -0.698013   -2.564985   -1.886186
  39 H   1.0000    0     1.008   -6.499823   -5.508323   -0.760081
  40 O   8.0000    0    15.999   -5.149564   -6.438180   -1.563815
  41 H   1.0000    0     1.008   -3.802106   -5.248965   -1.967176
  42 H   1.0000    0     1.008    5.234165    0.238780    5.537837
  43 O   8.0000    0    15.999    5.419301   -0.110105    7.354648
  44 H   1.0000    0     1.008    5.593770    1.575418    8.122917
  45 H   1.0000    0     1.008   -6.659148   12.076978   -1.017417
  46 O   8.0000    0    15.999   -6.206899   13.330648   -2.338335
  47 H   1.0000    0     1.008   -5.937358   14.926001   -1.446903
  48 H   1.0000    0     1.008    7.370987    1.102442    2.238108
  49 O   8.0000    0    15.999    5.574139    0.760360    2.455559
  50 H   1.0000    0     1.008    5.125473   -0.658927    1.357595
  51 H   1.0000    0     1.008  -10.924486    1.622238   -3.044257
  52 O   8.0000    0    15.999   -9.203185    2.237388   -2.805050
  53 H   1.0000    0     1.008   -9.410417    3.802050   -1.835902
  54 H   1.0000    0     1.008   -2.284609   10.205172    4.184042
  55 O   8.0000    0    15.999   -3.466842    8.794641    3.960429
  56 H   1.0000    0     1.008   -3.615229    8.000859    5.588970
  57 H   1.0000    0     1.008    6.604165    5.223751    0.807263
  58 O   8.0000    0    15.999    6.135488    5.146204   -0.967658
  59 H   1.0000    0     1.008    6.763762    3.555014   -1.632849
  60 H   1.0000    0     1.008    2.810079   -8.860895   -4.277619
  61 O   8.0000    0    15.999    2.930971   -7.393365   -3.192415
  62 H   1.0000    0     1.008    4.434720   -6.522725   -3.852584
  63 H   1.0000    0     1.008   -1.740334   -0.138878   -4.823853
  64 O   8.0000    0    15.999   -0.542734    1.094699   -5.435823
  65 H   1.0000    0     1.008   -0.048028    2.192371   -4.041735
  66 H   1.0000    0     1.008    3.199920   -8.846517   -0.363079
  67 O   8.0000    0    15.999    3.398588  -10.052493    1.038916
  68 H   1.0000    0     1.008    2.523177  -11.584188    0.475651
  69 H   1.0000    0     1.008   -2.318981   -6.147958   -5.460753
  70 O   8.0000    0    15.999   -2.002095   -7.437116   -6.714445
  71 H   1.0000    0     1.008   -1.758023   -9.040279   -5.833736
  72 H   1.0000    0     1.008   -5.255835    6.253327    8.889450
  73 O   8.0000    0    15.999   -3.401644    6.245787    8.825748
  74 H   1.0000    0     1.008   -2.849805    5.483449   10.405114
  75 H   1.0000    0     1.008    1.820350    9.509245    7.711119
  76 O   8.0000    0    15.999    0.032809    9.949325    7.809523
  77 H   1.0000    0     1.008   -0.860416    8.431423    8.293909
  78 H   1.0000    0     1.008   -3.282721   -8.773121   -0.729757
  79 O   8.0000    0    15.999   -1.838042   -9.797057   -0.193103
  80 H   1.0000    0     1.008   -2.494830  -11.096754    0.897710
  81 H   1.0000    0     1.008   -7.392606   11.049051   -4.903130
  82 O   8.0000    0    15.999   -8.056698    9.474860   -5.530328
  83 H   1.0000    0     1.008   -7.762090    9.412749   -7.359797
  84 H   1.0000    0     1.008   -4.605027   -6.962906    3.634625
  85 O   8.0000    0    15.999   -4.642854   -8.673778    4.339235
  86 H   1.0000    0     1.008   -2.867449   -9.125895    4.606264
  87 H   1.0000    0     1.008   -8.877568   -5.601389   -5.495690
  88 O   8.0000    0    15.999   -7.272483   -6.045128   -6.273316
  89 H   1.0000    0     1.008   -6.640136   -7.541924   -5.392213
  90 H   1.0000    0     1.008    0.636269    2.596289    8.716745
  91 O   8.0000    0    15.999    1.593372    4.033105    8.088558
  92 H   1.0000    0     1.008    1.687266    5.275617    9.426849
  93 H   1.0000    0     1.008   -8.804964   -9.746549   -2.998679
  94 O   8.0000    0    15.999  -10.136205   -9.079315   -1.919613
  95 H   1.0000    0     1.008   -9.735481   -9.748023   -0.247164
  96 H   1.0000    0     1.008    4.383943  -12.229170   -7.663066
  97 O   8.0000    0    15.999    3.747041  -11.609915   -6.049070
  98 H   1.0000    0     1.008    4.566683  -12.697844   -4.797921
  99 H   1.0000    0     1.008    0.876558   -6.362158   -7.590901
 100 O   8.0000    0    15.999    2.394110   -5.667259   -8.386641
 101 H   1.0000    0     1.008    1.793794   -4.963071   -9.990595
 102 H   1.0000    0     1.008    3.702860   -3.315842    5.621116
 103 O   8.0000    0    15.999    3.993664   -5.074686    5.207487
 104 H   1.0000    0     1.008    2.698166   -5.474419    3.945402
 105 H   1.0000    0     1.008   -5.700405   -3.390244   -6.083723
 106 O   8.0000    0    15.999   -4.902422   -1.716755   -5.958537
 107 H   1.0000    0     1.008   -6.138127   -0.492171   -6.560508
 108 H   1.0000    0     1.008   -6.023659    9.416354    2.044930
 109 O   8.0000    0    15.999   -7.500347   10.124239    1.186805
 110 H   1.0000    0     1.008   -8.283885   11.177507    2.522826
 111 H   1.0000    0     1.008    1.654432    4.258972    4.895239
 112 O   8.0000    0    15.999    1.845240    4.252626    3.059906
 113 H   1.0000    0     1.008    3.218884    3.075109    2.748229
 114 H   1.0000    0     1.008    0.368527   10.703635   -1.422684
 115 O   8.0000    0    15.999    1.355355   11.955085   -2.381998
 116 H   1.0000    0     1.008    1.625499   13.464386   -1.328994
 117 H   1.0000    0     1.008    0.656252   13.297707    4.910907
 118 O   8.0000    0    15.999   -0.028357   12.581868    3.364895
 119 H   1.0000    0     1.008    1.225767   11.314696    2.868927
 120 H   1.0000    0     1.008   -4.692358    0.411336    6.302161
 121 O   8.0000    0    15.999   -5.113684   -1.128901    7.252386
 122 H   1.0000    0     1.008   -3.677353   -1.206727    8.428436
 123 H   1.0000    0     1.008   -1.697503    1.038450   11.377272
 124 O   8.0000    0    15.999   -1.180673    0.058573    9.912219
 125 H   1.0000    0     1.008    0.166971   -1.083589   10.452458
 126 H   1.0000    0     1.008    1.326606   -9.435460    3.715671
 127 O   8.0000    0    15.999    0.299305   -9.644394    5.234017
 128 H   1.0000    0     1.008    0.572031  -11.384962    5.746004
 129 H   1.0000    0     1.008   -4.022812  -15.271499    0.806706
 130 O   8.0000    0    15.999   -3.413919  -14.351209    2.291845
 131 H   1.0000    0     1.008   -4.899444  -13.765029    3.155419
 132 H   1.0000    0     1.008   -0.704817   12.990927   -4.380898
 133 O   8.0000    0    15.999   -2.114470   13.787211   -5.323553
 134 H   1.0000    0     1.008   -3.607717   13.548354   -4.259194
 135 H   1.0000    0     1.008   -2.099517    8.155499    1.088758
 136 O   8.0000    0    15.999   -1.394309    8.272833   -0.604304
 137 H   1.0000    0     1.008   -2.729621    7.819668   -1.800562
 138 H   1.0000    0     1.008   -8.333907    5.199455    6.622946
 139 O   8.0000    0    15.999   -8.332033    5.517975    8.446207
 140 H   1.0000    0     1.008   -8.491199    3.848071    9.216291
 141 H   1.0000    0     1.008    3.810998   -6.777803    8.000042
 142 O   8.0000    0    15.999    3.688002   -7.673029    9.610592
 143 H   1.0000    0     1.008    4.647504   -6.662672   10.804629
 144 H   1.0000    0     1.008    8.848746   -6.039081    1.568838
 145 O   8.0000    0    15.999    8.546244   -5.892325   -0.257382
 146 H   1.0000    0     1.008    6.924377   -4.988347   -0.414081
 147 H   1.0000    0     1.008   -5.147500   -1.392131   -2.568757
 148 O   8.0000    0    15.999   -5.769181   -0.886495   -0.916301
 149 H   1.0000    0     1.008   -7.278487    0.112460   -1.306334
 150 H   1.0000    0     1.008   -3.053342   -1.405776   -8.763633
 151 O   8.0000    0    15.999   -2.097978   -0.997066  -10.283753
 152 H   1.0000    0     1.008   -0.753925    0.127464   -9.744974
 153 H   1.0000    0     1.008    3.388907   -3.221541   -6.396425
 154 O   8.0000    0    15.999    3.562984   -1.812977   -5.215421
 155 H   1.0000    0     1.008    2.096290   -0.719722   -5.463275
 156 H   1.0000    0     1.008    6.910551   -5.906326    4.802455
 157 O   8.0000    0    15.999    8.722405   -6.340396    4.664182
 158 H   1.0000    0     1.008    8.824215   -8.155353    4.900425
 159 H   1.0000    0     1.008    6.456293  -11.575393    5.873628
 160 O   8.0000    0    15.999    7.129336  -11.193281    4.173463
 161 H   1.0000    0     1.008    5.736852  -10.536772    3.148204
 162 H   1.0000    0     1.008   -6.315466    3.074923   -7.903492
 163 O   8.0000    0    15.999   -7.912734    2.184629   -7.544337
 164 H   1.0000    0     1.008   -8.324476    2.460995   -5.736710
 165 H   1.0000    0     1.008   -9.598899    7.858888    0.126268
 166 O   8.0000    0    15.999  -10.429786    6.223640   -0.074012
 167 H   1.0000    0     1.008  -12.187604    6.453085   -0.605222
 168 H   1.0000    0     1.008   12.720947   -2.232660   -2.583830
 169 O   8.0000    0    15.999   11.261258   -1.950313   -1.541348
 170 H   1.0000    0     1.008   10.468016   -3.590121   -1.171417
 171 H   1.0000    0     1.008    8.673168   -5.979194   -4.685703
 172 O   8.0000    0    15.999    7.033548   -5.652566   -5.471559
 173 H   1.0000    0     1.008    7.040012   -6.819098   -6.902985
 174 H   1.0000    0     1.008    8.367652   -4.353041   10.609266
 175 O   8.0000    0    15.999    7.717494   -5.235138   12.105803
 176 H   1.0000    0     1.008    8.349580   -6.945524   11.948787
 177 H   1.0000    0     1.008   -1.420329   11.971826    9.602048
 178 O   8.0000    0    15.999   -2.547479   13.059149   10.620271
 179 H   1.0000    0     1.008   -2.570598   14.718206    9.789167
 180 H   1.0000    0     1.008    8.876703   -0.251865   -2.777723
 181 O   8.0000    0    15.999    7.427465    0.775286   -3.272862
 182 H   1.0000    0     1.008    6.118475   -0.357417   -3.899532
 183 H   1.0000    0     1.008   -1.394351    8.574931   -7.624473
 184 O   8.0000    0    15.999   -2.872914    9.602721   -8.015546
 185 H   1.0000    0     1.008   -2.584913   11.239138   -7.214792
 186 H   1.0000    0     1.008    1.251678    6.072952   -5.021566
 187 O   8.0000    0    15.999    1.265662    6.787575   -6.737221
 188 H   1.0000    0     1.008    1.355544    5.346880   -7.846260
 189 H   1.0000    0     1.008  -10.189930   -9.797620    3.358570
 190 O   8.0000    0    15.999   -8.875274  -10.919449    2.680658
 191 H   1.0000    0     1.008   -7.285289  -10.139548    3.197257
 192 H   1.0000    0     1.008   14.889511   -3.187099   -7.632578
 193 O   8.0000    0    15.999   14.402133   -2.597568   -5.931547
 194 H   1.0000    0     1.008   13.484218   -1.001347   -6.225005
 195 H   1.0000    0     1.008    6.984347   -9.564449  -10.022277
 196 O   8.0000    0    15.999    8.424944   -8.861714   -9.110344
 197 H   1.0000    0     1.008    9.150095  -10.208542   -8.082156
 198 H   1.0000    0     1.008   -7.159187    0.036025    9.312276
 199 O   8.0000    0    15.999   -8.294421    0.912085   10.508235
 200 H   1.0000    0     1.008   -9.543182   -0.331197   11.057758
 201 H   1.0000    0     1.008    6.531132  -11.225182   -1.010058
 202 O   8.0000    0    15.999    8.181107  -10.758411   -1.608528
 203 H   1.0000    0     1.008    8.327111   -8.940546   -1.333940
 204 H   1.0000    0     1.008    9.448613   -0.620854   -7.869537
 205 O   8.0000    0    15.999    8.435005   -1.962179   -8.608867
 206 H   1.0000    0     1.008    7.817964   -3.066965   -7.254766
 207 H   1.0000    0     1.008   -2.213915    2.997912   -7.445025
 208 O   8.0000    0    15.999   -3.443343    4.171149   -8.172856
 209 H   1.0000    0     1.008   -2.765350    4.801564   -9.770090
 210 H   1.0000    0     1.008    9.216433  -11.939289   -4.403173
 211 O   8.0000    0    15.999    9.845409  -12.550674   -6.039847
 212 H   1.0000    0     1.008   11.389859  -13.462269   -5.688346
 213 H   1.0000    0     1.008   16.504318   -9.621053   -5.535940
 214 O   8.0000    0    15.999   15.196770  -10.410702   -4.482481
 215 H   1.0000    0     1.008   15.260095  -12.219521   -4.678823
 216 H   1.0000    0     1.008    4.423927    8.923131    0.861185
 217 O   8.0000    0    15.999    3.328358    8.887691    2.317773
 218 H   1.0000    0     1.008    2.651304    7.149065    2.461268
 219 H   1.0000    0     1.008   -8.357146   -4.972763    7.973510
 220 O   8.0000    0    15.999  -10.045835   -4.329599    7.589923
 221 H   1.0000    0     1.008   -9.784929   -2.850553    6.506964
 222 H   1.0000    0     1.008  -11.059264   -6.019289    2.464919
 223 O   8.0000    0    15.999  -11.937746   -7.072668    3.724246
 224 H   1.0000    0     1.008  -11.579791   -6.254436    5.333853
 225 H   1.0000    0     1.008    3.184498    6.538874   12.971241
 226 O   8.0000    0    15.999    2.008467    7.515724   11.963549
 227 H   1.0000    0     1.008    0.529040    7.805178   13.043941
 228 H   1.0000    0     1.008    9.438873   -4.111761    6.819793
 229 O   8.0000    0    15.999    9.478234   -2.756740    8.077279
 230 H   1.0000    0     1.008    7.945452   -1.703390    7.782374
 231 H   1.0000    0     1.008    4.497585  -10.549418    9.116244
 232 O   8.0000    0    15.999    5.214023  -12.219461    8.622040
 233 H   1.0000    0     1.008    3.805190  -13.316489    8.290815
 234 H   1.0000    0     1.008    4.255959   -8.506593  -12.856861
 235 O   8.0000    0    15.999    3.936295   -9.430653  -11.316256
 236 H   1.0000    0     1.008    3.437200   -8.126442  -10.076095
 237 H   1.0000    0     1.008   12.156856   -7.756002   -0.971012
 238 O   8.0000    0    15.999   13.578955   -8.520484   -0.096000
 239 H   1.0000    0     1.008   14.537450   -9.318149   -1.458985
 240 H   1.0000    0     1.008   -3.261359    8.473787   14.556577
 241 O   8.0000    0    15.999   -1.562847    8.655999   15.285749
 242 H   1.0000    0     1.008   -1.218948   10.468126   15.335296
 243 H   1.0000    0     1.008   -9.661734   10.799478  -10.570835
 244 O   8.0000    0    15.999   -8.515847    9.354864  -10.611073
 245 H   1.0000    0     1.008   -7.083700    9.760375  -11.679221
 246 H   1.0000    0     1.008    6.196515   -4.745469  -15.960748
 247 O   8.0000    0    15.999    6.029298   -5.751428  -14.446251
 248 H   1.0000    0     1.008    7.686482   -5.710652  -13.637066
 249 H   1.0000    0     1.008   -1.231901   16.700715   -4.287005
 250 O   8.0000    0    15.999   -0.998611   18.264200   -3.303528
 251 H   1.0000    0     1.008    0.441378   17.931507   -2.213882
 252 H   1.0000    0     1.008    3.894446   -1.735638    9.836912
 253 O   8.0000    0    15.999    2.809798   -2.729796   10.944465
 254 H   1.0000    0     1.008    2.987982   -2.081131   12.641372
 255 H   1.0000    0     1.008    9.832652   -3.807271  -10.771924
 256 O   8.0000    0    15.999   10.486060   -5.254293  -11.760081
 257 H   1.0000    0     1.008    9.966094   -6.748327  -10.785217
 258 H   1.0000    0     1.008   10.743492   -9.872286    8.831748
 259 O   8.0000    0    15.999    9.756030   -9.713208   10.393822
 260 H   1.0000    0     1.008    8.391803  -10.906281   10.229811
 261 H   1.0000    0     1.008   -7.518125    2.162211   13.232213
 262 O   8.0000    0    15.999   -7.154787    3.058113   14.828384
 263 H   1.0000    0     1.008   -8.809705    3.787940   15.321990
 264 H   1.0000    0     1.008   -3.483188   18.186738   -1.389274
 265 O   8.0000    0    15.999   -5.109874   17.947656   -0.493872
 266 H   1.0000    0     1.008   -6.263161   19.138149   -1.224886
 267 H   1.0000    0     1.008  -11.233757    8.895947   -5.552675
 268 O   8.0000    0    15.999  -12.951377    8.672115   -6.202650
 269 H   1.0000    0     1.008  -12.781325    7.348055   -7.485283
 270 H   1.0000    0     1.008    0.159877  -13.336167   -2.194662
 271 O   8.0000    0    15.999    1.035745  -14.162036   -0.782223
 272 H   1.0000    0     1.008   -0.248301  -14.532383    0.442567
 273 H   1.0000    0     1.008  -14.428456    7.198760   -3.732409
 274 O   8.0000    0    15.999  -14.924823    6.087035   -2.336479
 275 H   1.0000    0     1.008  -14.655050    4.371322   -2.980907
 276 H   1.0000    0     1.008    7.497083   -1.707523   13.192330
 277 O   8.0000    0    15.999    7.514937    0.114481   13.177987
 278 H   1.0000    0     1.008    9.050995    0.662225   12.364232
 279 H   1.0000    0     1.008    4.275364   10.963338   -2.219085
 280 O   8.0000    0    15.999    6.042454   10.407813   -2.003260
 281 H   1.0000    0     1.008    6.375943    9.389622   -3.503964
 282 H   1.0000    0     1.008   12.361215  -11.211403    1.244567
 283 O   8.0000    0    15.999   11.662860  -12.603751    2.250681
 284 H   1.0000    0     1.008    9.953846  -12.079260    2.679216
 285 H   1.0000    0     1.008   -7.311677    8.930950   14.706287
 286 O   8.0000    0    15.999   -6.241649    8.057347   13.459557
 287 H   1.0000    0     1.008   -6.608757    6.274578   13.665585
 288 H   1.0000    0     1.008   10.867836  -15.017758    0.228292
 289 O   8.0000    0    15.999   10.322738  -16.313786   -0.978439
 290 H   1.0000    0     1.008    8.756988  -15.695725   -1.723432
 291 H   1.0000    0     1.008   -1.059998    3.845902   14.534434
 292 O   8.0000    0    15.999   -2.256442    3.727134   13.144804
 293 H   1.0000    0     1.008   -3.898030    3.460188   13.893519
 294 H   1.0000    0     1.008  -12.065438   -0.206670    1.991081
 295 O   8.0000    0    15.999  -12.673099   -0.365411    0.266522
 296 H   1.0000    0     1.008  -14.410991   -0.870376    0.304257
 297 H   1.0000    0     1.008  -10.164053   -5.765755   -1.135354
 298 O   8.0000    0    15.999   -9.685432   -4.441170    0.048314
 299 H   1.0000    0     1.008  -10.761531   -2.978199   -0.300041
 300 H   1.0000    0     1.008    8.165181   10.541485    0.615898
 301 O   8.0000    0    15.999    8.795522   10.728058    2.327113
 302 H   1.0000    0     1.008    7.483907   11.692473    3.182848
 303 H   1.0000    0     1.008  -17.101428   -3.259788   -4.275328
 304 O   8.0000    0    15.999  -16.059528   -2.886388   -2.793953
 305 H   1.0000    0     1.008  -16.304661   -4.276738   -1.587351
 306 H   1.0000    0     1.008  -10.435768    6.600016  -10.448155
 307 O   8.0000    0    15.999  -11.413840    5.255097   -9.667743
 308 H   1.0000    0     1.008  -10.154366    4.148203   -8.887074
 309 H   1.0000    0     1.008    6.006509   -1.656591  -10.697962
 310 O   8.0000    0    15.999    4.388618   -1.880616  -11.578067
 311 H   1.0000    0     1.008    4.550135   -3.482973  -12.476946
 312 H   1.0000    0     1.008   15.329849   -2.537963  -11.402743
 313 O   8.0000    0    15.999   15.343232   -4.171809  -10.542315
 314 H   1.0000    0     1.008   13.724861   -4.925490  -11.018049
 315 H   1.0000    0     1.008   14.401458    1.887103  -11.926498
 316 O   8.0000    0    15.999   14.043053    0.285489  -12.709691
 317 H   1.0000    0     1.008   12.188540    0.192974  -12.779334
 318 H   1.0000    0     1.008  -14.869169   -6.949894    1.734370
 319 O   8.0000    0    15.999  -16.149038   -6.745350    0.438960
 320 H   1.0000    0     1.008  -15.966318   -8.181851   -0.695831
 321 H   1.0000    0     1.008   -4.537824   16.522974    2.459601
 322 O   8.0000    0    15.999   -4.254758   15.407886    3.880751
 323 H   1.0000    0     1.008   -2.799993   14.362193    3.458699
 324 H   1.0000    0     1.008   -8.392326   12.171795    6.615879
 325 O   8.0000    0    15.999   -8.712773   12.979159    4.998203
 326 H   1.0000    0     1.008   -7.269226   14.085881    4.736694
 327 H   1.0000    0     1.008    6.430330    6.528172   -6.757322
 328 O   8.0000    0    15.999    6.142256    8.359746   -6.577529
 329 H   1.0000    0     1.008    4.319260    8.484392   -6.781820
 330 H   1.0000    0     1.008  -11.563883   -2.995544   -6.522827
 331 O   8.0000    0    15.999  -11.729308   -4.104778   -5.052712
 332 H   1.0000    0     1.008  -13.202719   -3.517586   -4.081608
 333 H   1.0000    0     1.008   12.215919    1.966109    8.953846
 334 O   8.0000    0    15.999   11.471674    2.982717   10.283598
 335 H   1.0000    0     1.008   11.828943    4.719354    9.736758
 336 H   1.0000    0     1.008    2.573732    3.280591  -11.007057
 337 O   8.0000    0    15.999    2.203497    2.152237   -9.584038
 338 H   1.0000    0     1.008    2.890847    0.522021  -10.096217
 339 H   1.0000    0     1.008   -4.710529    5.584025   19.809901
 340 O   8.0000    0    15.999   -4.311343    3.869297   19.290641
 341 H   1.0000    0     1.008   -5.440802    3.495659   17.905677
 342 H   1.0000    0     1.008   14.405251   -0.955675    5.819956
 343 O   8.0000    0    15.999   12.988719    0.132914    6.140191
 344 H   1.0000    0     1.008   11.679389   -1.001454    6.855142
 345 H   1.0000    0     1.008  -10.716199  -15.194904   -1.363117
 346 O   8.0000    0    15.999   -9.329312  -15.327175   -0.140676
 347 H   1.0000    0     1.008   -9.335207  -13.784709    0.848652
 348 H   1.0000    0     1.008   -9.786296   -0.187864   -8.923910
 349 O   8.0000    0    15.999  -10.954536   -1.530969   -9.379555
 350 H   1.0000    0     1.008  -12.535885   -0.690703   -9.753780
 351 H   1.0000    0     1.008    3.569846   -0.344487  -14.211005
 352 O   8.0000    0    15.999    3.189924    0.551214  -15.803622
 353 H   1.0000    0     1.008    4.277634   -0.214249  -17.039884
 354 H   1.0000    0     1.008    9.203484   -2.602801  -17.594214
 355 O   8.0000    0    15.999    7.456028   -2.166579  -18.126676
 356 H   1.0000    0     1.008    7.416784   -2.388963  -19.920191
 357 H   1.0000    0     1.008   14.279629   -4.876698    7.923498
 358 O   8.0000    0    15.999   14.557474   -4.942001    6.110301
 359 H   1.0000    0     1.008   13.624111   -6.434890    5.593802
 360 H   1.0000    0     1.008   12.680534  -11.151804    5.049141
 361 O   8.0000    0    15.999   12.797827   -9.878194    6.376350
 362 H   1.0000    0     1.008   14.452694  -10.041908    7.166110
 363 H   1.0000    0     1.008   -3.430738   16.913563    6.625513
 364 O   8.0000    0    15.999   -2.962648   17.485894    8.324260
 365 H   1.0000    0     1.008   -4.566627   17.736803    9.184833
 366 H   1.0000    0     1.008  -13.964830    3.005035   -9.931782
 367 O   8.0000    0    15.999  -15.052991    1.598927   -9.471710
 368 H   1.0000    0     1.008  -16.755766    2.358171   -9.326853
 369 H   1.0000    0     1.008   13.085663   -2.024119  -15.890999
 370 O   8.0000    0    15.999   11.984239   -3.384389  -16.391689
 371 H   1.0000    0     1.008   11.552519   -4.237126  -14.821317
 372 H   1.0000    0     1.008   -3.158101   11.830831  -13.262588
 373 O   8.0000    0    15.999   -3.912455   10.271989  -12.747106
 374 H   1.0000    0     1.008   -3.442629   10.021589  -10.926752
 375 H   1.0000    0     1.008   -0.003253    6.240838   17.052392
 376 O   8.0000    0    15.999    0.366776    4.501430   17.531501
 377 H   1.0000    0     1.008   -1.142569    4.002518   18.487544
 378 H   1.0000    0     1.008   12.757003   -5.248041   -5.126253
 379 O   8.0000    0    15.999   11.752885   -6.654334   -4.484145
 380 H   1.0000    0     1.008   12.636749   -8.186781   -4.952278
 381 H   1.0000    0     1.008   -7.715441   -5.770004   -9.350327
 382 O   8.0000    0    15.999   -8.038553   -5.575867  -11.172031
 383 H   1.0000    0     1.008   -9.045264   -4.058516  -11.284200
 384 H   1.0000    0     1.008    3.735283    4.108189   15.995771
 385 O   8.0000    0    15.999    4.989939    4.321303   14.692004
 386 H   1.0000    0     1.008    5.786505    2.676425   14.471856
 387 H   1.0000    0     1.008  -13.069416   -9.797630   -2.665784
 388 O   8.0000    0    15.999  -14.801385  -10.301612   -3.132821
 389 H   1.0000    0     1.008  -15.054737   -9.540063   -4.797489
 390 H   1.0000    0     1.008   -7.231010    9.936125   10.770826
 391 O   8.0000    0    15.999   -7.167411   11.389552    9.656152
 392 H   1.0000    0     1.008   -5.402014   11.944120    9.835574
 393 H   1.0000    0     1.008  -14.906468    0.202082   -3.729042
 394 O   8.0000    0    15.999  -13.976840    1.566743   -4.509841
 395 H   1.0000    0     1.008  -14.409880    1.551980   -6.310789
 396 H   1.0000    0     1.008   11.025279    0.243542    0.772860
 397 O   8.0000    0    15.999   10.606563    1.605441    1.948263
 398 H   1.0000    0     1.008   11.570288    1.233436    3.484070
 399 H   1.0000    0     1.008  -11.749005    6.260934   13.974100
 400 O   8.0000    0    15.999  -11.508737    5.278718   15.538416
 401 H   1.0000    0     1.008  -12.644757    3.841692   15.369268
 402 H   1.0000    0     1.008    4.282514  -15.248662   -1.625007
 403 O   8.0000    0    15.999    5.561846  -15.223259   -2.940529
 404 H   1.0000    0     1.008    5.135836  -16.570264   -4.101830
 405 H   1.0000    0     1.008   -5.192832   -7.449938  -11.743177
 406 O   8.0000    0    15.999   -3.778979   -8.525463  -11.291786
 407 H   1.0000    0     1.008   -3.253823   -7.973402   -9.597908
 408 H   1.0000    0     1.008  -10.666663    7.117107   10.032271
 409 O   8.0000    0    15.999  -11.893340    7.865713   11.198976
 410 H   1.0000    0     1.008  -11.581701    9.649320   11.177496
 411 H   1.0000    0     1.008   -1.944119  -13.419461   -6.010888
 412 O   8.0000    0    15.999   -1.051747  -12.155977   -5.009140
 413 H   1.0000    0     1.008    0.664387  -12.026945   -5.727224
 414 H   1.0000    0     1.008    8.393937    3.797805    9.692066
 415 O   8.0000    0    15.999    6.614963    4.252293    9.465308
 416 H   1.0000    0     1.008    5.888555    4.281277   11.131789
 417 H   1.0000    0     1.008    7.765798    8.785231   11.915113
 418 O   8.0000    0    15.999    7.920316   10.166721   10.749367
 419 H   1.0000    0     1.008    6.847590    9.715658    9.291621
 420 H   1.0000    0     1.008    5.224096    6.830547    7.417001
 421 O   8.0000    0    15.999    4.890158    8.607850    7.105990
 422 H   1.0000    0     1.008    4.665345    8.797271    5.279954
 423 H   1.0000    0     1.008   17.746138    0.393442   -2.027319
 424 O   8.0000    0    15.999   16.222956    0.701623   -1.094757
 425 H   1.0000    0     1.008   15.888769   -0.846821   -0.165351
 426 H   1.0000    0     1.008   -3.971710   10.040571   20.133331
 427 O   8.0000    0    15.999   -5.337578    8.853583   20.568216
 428 H   1.0000    0     1.008   -5.750446    9.186497   22.297993
 429 H   1.0000    0     1.008   15.054131   -5.693642    0.605299
 430 O   8.0000    0    15.999   15.851319   -4.095168    1.090217
 431 H   1.0000    0     1.008   15.726666   -4.088759    2.908707
 432 H   1.0000    0     1.008   10.148732    6.915931    6.666823
 433 O   8.0000    0    15.999   11.389004    7.414032    7.926957
 434 H   1.0000    0     1.008   10.610603    8.770444    8.876982
 435 H   1.0000    0     1.008   -7.955405    9.484972   18.494945
 436 O   8.0000    0    15.999   -9.151076    9.773158   17.130491
 437 H   1.0000    0     1.008  -10.308877    8.359772   17.123855
 438 H   1.0000    0     1.008  -13.247443   -6.529178   -6.622152
 439 O   8.0000    0    15.999  -14.403293   -7.691688   -7.488709
 440 H   1.0000    0     1.008  -13.402306   -8.531656   -8.789640
 441 H   1.0000    0     1.008    0.052220   11.563453   20.364031
 442 O   8.0000    0    15.999   -1.580879   12.191955   19.897238
 443 H   1.0000    0     1.008   -1.360752   13.008048   18.261550
 444 H   1.0000    0     1.008    4.892104    2.844673   -7.761010
 445 O   8.0000    0    15.999    6.552226    3.509291   -7.308453
 446 H   1.0000    0     1.008    7.156678    2.533195   -5.853912
 447 H   1.0000    0     1.008  -13.187665   -0.405611   13.630082
 448 O   8.0000    0    15.999  -14.147193    1.065874   14.161544
 449 H   1.0000    0     1.008  -15.324112    1.415867   12.831258
 450 H   1.0000    0     1.008   -5.207761  -18.637668   -1.609696
 451 O   8.0000    0    15.999   -5.087834  -16.857377   -1.906680
 452 H   1.0000    0     1.008   -6.798718  -16.165496   -1.451650
 453 H   1.0000    0     1.008  -19.023959    5.860274   -9.263724
 454 O   8.0000    0    15.999  -19.245954    4.126405   -8.733561
 455 H   1.0000    0     1.008  -19.654788    4.286288   -6.938889
 456 H   1.0000    0     1.008   -3.922756   -5.711447    8.700673
 457 O   8.0000    0    15.999   -5.577655   -6.540760    8.829842
 458 H   1.0000    0     1.008   -5.566340   -7.707081    7.399882
 459 H   1.0000    0     1.008   -0.361274  -15.079924    4.664286
 460 O   8.0000    0    15.999    1.200173  -14.684254    5.511849
 461 H   1.0000    0     1.008    2.557686  -15.243702    4.403112
 462 H   1.0000    0     1.008   12.657535   -4.510587   12.068121
 463 O   8.0000    0    15.999   13.505313   -5.851624   11.190321
 464 H   1.0000    0     1.008   12.313271   -7.238780   11.115521
 465 H   1.0000    0     1.008   -9.977766   -3.780910   13.104574
 466 O   8.0000    0    15.999  -11.254554   -2.837205   12.190795
 467 H   1.0000    0     1.008  -11.224437   -3.547431   10.472020
 468 H   1.0000    0     1.008    1.584201    5.762843  -13.444465
 469 O   8.0000    0    15.999    3.317236    5.135274  -13.550002
 470 H   1.0000    0     1.008    3.290349    3.724844  -14.735443
 471 H   1.0000    0     1.008   -7.464683   16.551260   12.624399
 472 O   8.0000    0    15.999   -7.460973   16.549476   10.815231
 473 H   1.0000    0     1.008   -7.699358   14.797585   10.307042
 474 H   1.0000    0     1.008   -3.875045   19.516469   -5.152693
 475 O   8.0000    0    15.999   -5.578521   19.861880   -5.722889
 476 H   1.0000    0     1.008   -5.441680   21.062042   -7.068034
 477 H   1.0000    0     1.008   17.766255   -7.695497    7.626781
 478 O   8.0000    0    15.999   17.235549   -8.977918    8.801312
 479 H   1.0000    0     1.008   16.424971   -8.086186   10.170941
 480 H   1.0000    0     1.008   -1.403454  -11.306018  -11.069839
 481 O   8.0000    0    15.999   -0.076782  -12.372130  -10.426970
 482 H   1.0000    0     1.008    1.503623  -11.506202  -10.844556
 483 H   1.0000    0     1.008    3.461160   15.645268    1.271561
 484 O   8.0000    0    15.999    2.888779   16.256267   -0.386051
 485 H   1.0000    0     1.008    4.428539   16.327996   -1.388203
 486 H   1.0000    0     1.008    6.614371    5.561048  -12.588779
 487 O   8.0000    0    15.999    8.177576    5.010178  -11.815676
 488 H   1.0000    0     1.008    7.713315    4.490428  -10.099221
 489 H   1.0000    0     1.008    7.064710   13.472496   -2.310593
 490 O   8.0000    0    15.999    7.455372   15.240908   -2.711438
 491 H   1.0000    0     1.008    8.153508   15.136450   -4.399521
 492 H   1.0000    0     1.008    8.303430    0.011385  -14.958123
 493 O   8.0000    0    15.999    9.015187    0.285059  -13.314286
 494 H   1.0000    0     1.008    8.674117    2.046025  -12.852319
 495 H   1.0000    0     1.008   11.394569    3.653424   -0.898698
 496 O   8.0000    0    15.999   12.463282    4.019523   -2.337642
 497 H   1.0000    0     1.008   14.020473    3.110716   -1.972506
 498 H   1.0000    0     1.008   12.607475  -15.931228   -3.066801
 499 O   8.0000    0    15.999   13.810110  -15.531957   -4.457500
 500 H   1.0000    0     1.008   14.501197  -17.108247   -5.004576
[...]
     23       0.009068  -0.007332   0.001840  -0.010605  -0.009144   0.004874
     24      -0.005063   0.000308   0.018473  -0.023649   0.016184  -0.008952
     25       0.033879  -0.040468  -0.004501  -0.032160  -0.020557   0.027163
     26      -0.016617   0.013904  -0.005839   0.022424   0.004606  -0.009982
     27       0.159665  -0.031303   0.030382  -0.187316   0.016273   0.038547
     28       0.660794  -0.179535   0.004928  -0.438346  -0.157312   0.220532
     29      -0.343174   0.092734  -0.002200   0.237523   0.066719  -0.105503
     30      -0.005177   0.010291  -0.002904   0.035024  -0.007140   0.000174
     31      -0.055265  -0.022978  -0.007973  -0.001435  -0.014401   0.007955
     32      -0.016442   0.015252  -0.016229   0.041571  -0.009560  -0.002291
     33      -0.005930  -0.034941  -0.004769  -0.003092  -0.029167   0.011695
     34      -0.023724  -0.024215  -0.004706  -0.006781  -0.011152   0.010929
     35       0.061259  -0.015347  -0.014801   0.007635  -0.017651   0.016915
                 18         19         20         21         22         23    
      0       0.246855   0.003560   0.006092   0.000172   0.013067  -0.005135
      1      -0.643741   0.002589  -0.003338  -0.000084  -0.004669   0.001795
      2       0.506740  -0.004281  -0.001377  -0.000088  -0.008698   0.003996
      3      -0.020179   0.000603   0.000236  -0.000030  -0.001114   0.000594
      4       0.044098   0.000218   0.000182   0.000008   0.000015  -0.000019
      5      -0.034393   0.001191   0.000084  -0.000008   0.000693  -0.000437
      6       0.016393  -0.005330  -0.003586   0.000088   0.003490  -0.002197
      7      -0.256885   0.008842  -0.002455  -0.000528   0.002954  -0.002618
      8       0.186056  -0.015026  -0.002995   0.000429  -0.002741   0.001360
      9      -0.055599  -0.003590  -0.003006  -0.000414  -0.004117  -0.000551
     10       0.048243   0.036964   0.033975  -0.000491   0.028709  -0.004853
     11       0.134650   0.075030   0.071892  -0.000742   0.063176  -0.006840
     12      -0.000482   0.004675   0.004950   0.000019   0.005790  -0.000417
     13       0.023180  -0.008165  -0.003474   0.000176  -0.003715   0.001058
     14      -0.002019  -0.015140  -0.004508  -0.000053  -0.004137   0.001686
     15       0.080638  -0.027186  -0.011651  -0.000145  -0.012472   0.002222
     16      -0.120701   0.043430   0.018483  -0.000097   0.012463  -0.001129
     17      -0.322831   0.095567   0.035615  -0.001007   0.022150  -0.004407
     18      -0.003617  -0.487911   0.057766  -0.033345  -0.003429   0.096574
     19      -0.012339   0.041633  -0.055887  -0.118007   0.045966  -0.007531
     20       0.004582  -0.171584  -0.077494   0.060740   0.091943   0.044590
     21       0.004156   0.437568  -0.015429   0.015938   0.035096   0.015583
     22      -0.000129  -0.046622   0.015374   0.054149  -0.034416  -0.001624
     23       0.002874   0.131151   0.019885  -0.027335  -0.047468   0.005858
     24      -0.003401  -0.519169  -0.595077   0.098934   0.203167  -0.626945
     25      -0.012231   0.055496   0.122220   0.229247  -0.002163   0.204921
     26       0.004708  -0.148276  -0.080192  -0.098099   0.090962   0.010346
     27       0.025667  -0.122718  -0.463628   0.003101  -0.849681   0.011125
     28       0.099508   0.084302   0.128952  -0.012818   0.218586   0.000698
     29      -0.048061   0.166408   0.026717   0.006835  -0.041979   0.016307
     30       0.004974  -0.262755   0.248786  -0.604955   0.007525  -0.356125
     31      -0.017520   0.072340   0.144924   0.253115  -0.244344   0.050684
     32       0.009223   0.011619   0.286117  -0.221779  -0.137037  -0.346388
     33      -0.010470  -0.277894   0.296330   0.647756   0.048625  -0.423296
     34      -0.015429   0.066085   0.031388   0.075419   0.045723  -0.150476
     35       0.007227   0.003264   0.342221   0.025525  -0.273324  -0.318494
                 24         25         26         27         28         29    
      0      -0.001481  -0.006305   0.529541  -0.149727   0.000114  -0.000199
      1       0.000689   0.002403  -0.209017   0.052130  -0.000659  -0.000191
      2       0.000968   0.004114  -0.412819   0.113910  -0.000760  -0.000291
      3       0.000184   0.000537  -0.064319   0.016894   0.000108   0.000002
      4      -0.000086   0.000065  -0.008206   0.001832  -0.000129  -0.000002
      5       0.000008  -0.000227   0.014159  -0.004878  -0.000256   0.000031
      6      -0.001124  -0.001688   0.513790  -0.156220  -0.001092   0.000201
      7       0.001016  -0.002670   0.350857  -0.104720   0.002459   0.000464
      8      -0.001423   0.000804   0.192621  -0.049792   0.003858  -0.000304
      9       0.002523   0.001825   0.144762   0.481397   0.001403   0.000367
     10       0.002951  -0.005652   0.130213   0.435507  -0.002480  -0.000048
     11       0.002254  -0.015893  -0.021075  -0.088684  -0.000166   0.000231
     12      -0.000056  -0.001736  -0.021834  -0.062174  -0.000321   0.000050
     13      -0.000397   0.000837  -0.004530  -0.005165   0.000062   0.000015
     14       0.000245   0.000770  -0.005414  -0.006664   0.000401  -0.000036
     15      -0.000910   0.004342   0.150985   0.583695   0.002494  -0.001353
     16      -0.000520  -0.004598  -0.069226  -0.323662   0.003382  -0.001050
     17      -0.002895  -0.004985   0.100606   0.211840  -0.001817   0.000099
     18       0.020458  -0.036022   0.001512  -0.001426   0.046423   0.017298
     19       0.053456   0.018519  -0.001448  -0.000582  -0.013016   0.084162
     20      -0.021921   0.016131  -0.000545   0.000431  -0.017164  -0.037555
     21       0.004155  -0.015417   0.000188  -0.000535   0.003159  -0.000164
     22       0.005976   0.014605   0.001639  -0.000246  -0.000951  -0.000424
     23      -0.004344   0.020459   0.001175  -0.000604  -0.000012   0.000227
     24      -0.171800  -0.329494  -0.005658   0.002090  -0.017569   0.008812
     25      -0.644434   0.035588  -0.000712   0.000155  -0.096558   0.038096
     26       0.289650   0.011989  -0.000488  -0.000397  -0.232711   0.016395
     27      -0.019495   0.247933   0.013850  -0.011430   0.006229  -0.001726
     28       0.013341  -0.060525  -0.002736   0.004507   0.009119  -0.004625
     29      -0.004233   0.017160  -0.003870  -0.001084   0.019433   0.000876
     30      -0.237182   0.294863   0.000512  -0.002229  -0.432369  -0.406020
     31      -0.164983  -0.557770  -0.002871   0.000864  -0.367630  -0.316619
     32      -0.405732  -0.146031  -0.004294   0.001808   0.442621   0.422570
     33       0.117720   0.481466  -0.001358  -0.003414  -0.159131   0.195585
     34       0.067810   0.126433  -0.003114  -0.001046   0.623630  -0.712350
     35       0.447550  -0.392711  -0.001644   0.000032  -0.028049   0.004398
                 30         31         32         33         34         35    
      0      -0.001796  -0.598049  -0.055742   0.035640   0.027579  -0.013364
      1      -0.001585  -0.619886  -0.068145   0.010772   0.019662  -0.010943
      2      -0.001212  -0.488939  -0.054173   0.000642   0.011842  -0.008479
      3      -0.000009   0.036768   0.011075   0.027731   0.012262  -0.005432
      4       0.000170   0.037617  -0.002623  -0.026103  -0.012971   0.005926
      5       0.000164   0.029664  -0.006953  -0.039116  -0.018948   0.008359
      6       0.001498   0.004611  -0.112895  -0.462009  -0.222248   0.099517
      7      -0.000925   0.034689   0.104704   0.398153   0.186204  -0.079978
      8      -0.001248   0.036436   0.160906   0.613169   0.287375  -0.124254
      9      -0.001355   0.008494  -0.051303  -0.039205  -0.169671  -0.609545
     10       0.001756  -0.017311   0.096165   0.029906   0.163495   0.638322
     11      -0.001116   0.009221  -0.045371  -0.012333  -0.095159  -0.371008
     12       0.000207  -0.003458   0.033866  -0.002292   0.002548   0.035847
     13       0.000108  -0.005373   0.043493  -0.008211  -0.023225  -0.041122
     14      -0.000090   0.000353  -0.011768   0.003478   0.009159   0.023083
     15      -0.002109   0.054979  -0.491705   0.066271   0.131228   0.036799
     16      -0.003857   0.092265  -0.779231   0.110804   0.199018   0.007622
     17       0.001256  -0.027435   0.229722  -0.026938  -0.056418   0.001883
     18       0.004550  -0.000045   0.000257  -0.000856   0.000138   0.000271
     19      -0.038342   0.000063   0.000033  -0.000311   0.000914  -0.000022
     20      -0.080313   0.000051   0.000638  -0.001234   0.001744  -0.000350
     21      -0.000640   0.000161   0.001200  -0.004373   0.007887  -0.001997
     22       0.001146   0.000053   0.003774  -0.013093   0.022585  -0.005656
     23       0.002100   0.000018   0.008433  -0.027326   0.047680  -0.011841
     24       0.078455  -0.000162  -0.002062   0.004246  -0.005627   0.000950
     25       0.374346  -0.000673  -0.003398   0.005968  -0.007572   0.001054
     26       0.889692  -0.001738  -0.008483   0.015965  -0.020677   0.002802
     27       0.006352  -0.001870  -0.016669   0.058679  -0.108291   0.029226
     28      -0.012305  -0.002330  -0.062084   0.204099  -0.359243   0.093038
     29      -0.022818  -0.004127  -0.127829   0.425591  -0.749566   0.191009
     30      -0.089410   0.000918  -0.002709   0.007175  -0.008729   0.000916
     31      -0.091623   0.000819  -0.000577   0.002981  -0.002619   0.000233
     32       0.081405  -0.000770   0.001088  -0.003212   0.002693   0.000248
     33      -0.038849   0.000372  -0.002319   0.005035  -0.006118   0.001224
     34       0.168471  -0.000942   0.003563  -0.006542   0.006209  -0.000684
     35      -0.023500   0.000034  -0.000166   0.001205  -0.002278   0.000863


-----------
IR SPECTRUM
-----------

 Mode   freq       eps      Int      T**2         TX        TY        TZ
       cm**-1   L/(mol*cm) km/mol    a.u.
----------------------------------------------------------------------------
  6:    109.04   0.001015    5.13  0.002904  (-0.010501 -0.027888 -0.044898)
  7:    125.71   0.000971    4.91  0.002409  ( 0.004029  0.041075 -0.026573)
  8:    144.78   0.002090   10.56  0.004505  ( 0.007132  0.061643 -0.025578)
  9:    180.60   0.000448    2.26  0.000773  ( 0.008014  0.000577  0.026623)
 10:    227.08   0.000852    4.31  0.001171  (-0.015694  0.010500  0.028542)
 11:    275.11   0.001177    5.95  0.001335  ( 0.009213 -0.022334 -0.027402)
 12:    578.43   0.001473    7.44  0.000795  ( 0.014457  0.016795 -0.017425)
 13:    635.29   0.003943   19.93  0.001937  (-0.008292 -0.028996  0.032050)
 14:    704.91   0.003904   19.73  0.001728  (-0.012961 -0.016943 -0.035681)
 15:    783.04   0.035863  181.24  0.014292  (-0.004062 -0.112773 -0.039473)
 16:    844.78   0.037876  191.41  0.013992  (-0.001216 -0.017995  0.116903)
 17:    915.99   0.017859   90.25  0.006084  ( 0.007851 -0.000318 -0.077604)
 18:    954.73   0.022404  113.22  0.007323  ( 0.026152 -0.073027  0.036141)
 19:   1054.00   0.019041   96.23  0.005638  (-0.072930  0.009321 -0.015231)
 20:   1121.28   0.001737    8.78  0.000483  (-0.020043  0.006925  0.005800)
 21:   1164.94   0.000065    0.33  0.000017  (-0.000448 -0.003811  0.001603)
 22:   1449.51   0.004541   22.95  0.000978  (-0.029822  0.004397 -0.008307)
 23:   1476.77   0.001125    5.68  0.000238  ( 0.013707  0.001197  0.006955)
 24:   1497.06   0.000283    1.43  0.000059  (-0.001021 -0.006688  0.003633)
 25:   1518.06   0.000623    3.15  0.000128  (-0.001361 -0.005753 -0.009651)
 26:   1728.62   0.026445  133.64  0.004774  ( 0.065038 -0.003810 -0.023012)
 27:   1766.93   0.009477   47.89  0.001674  ( 0.037603  0.007676  0.014174)
 28:   2930.15   0.016553   83.65  0.001763  ( 0.041502 -0.005457  0.003277)
 29:   2968.82   0.016256   82.15  0.001709  ( 0.006640  0.037146 -0.016878)
 30:   3052.54   0.011113   56.16  0.001136  (-0.001883 -0.014209 -0.030506)
 31:   3337.92   0.004031   20.37  0.000377  (-0.010457 -0.010098 -0.012866)
 32:   3406.14   0.014342   72.48  0.001314  (-0.028914 -0.016948  0.013809)
 33:   3515.20   0.169090  854.51  0.015011  (-0.034193  0.061947  0.100023)
 34:   3556.97   0.044161  223.17  0.003874  (-0.047874  0.003773 -0.039601)
 35:   3629.54   0.009221   46.60  0.000793  (-0.001774  0.025821 -0.011089)

* The epsilon (eps) is given for a Dirac delta lineshape.
** The dipole moment derivative (T) already includes vibrational overlap.

The first frequency considered to be a vibration is 6
The total number of vibrations considered is 30


--------------------------
THERMOCHEMISTRY AT 298.15K
--------------------------

Temperature         ... 298.15 K
Pressure            ... 1.00 atm
Total Mass          ... 68.07 AMU

Throughout the following assumptions are being made:
  (1) The electronic state is orbitally nondegenerate
  (2) There are no thermally accessible electronically excited states
  (3) Hindered rotations indicated by low frequency modes are not
      treated as such but are treated as vibrations and this may
      cause some error
  (4) All equations used are the standard statistical mechanics
      equations for an ideal gas
  (5) All vibrations are strictly harmonic

freq.     109.04  E(vib)   ...       0.45 
freq.     125.71  E(vib)   ...       0.43 
freq.     144.78  E(vib)   ...       0.41 
freq.     180.60  E(vib)   ...       0.37 
freq.     227.08  E(vib)   ...       0.33 
freq.     275.11  E(vib)   ...       0.28 
freq.     578.43  E(vib)   ...       0.11 
freq.     635.29  E(vib)   ...       0.09 
freq.     704.91  E(vib)   ...       0.07 
freq.     783.04  E(vib)   ...       0.05 
freq.     844.78  E(vib)   ...       0.04 
freq.     915.99  E(vib)   ...       0.03 
freq.     954.73  E(vib)   ...       0.03 
freq.    1054.00  E(vib)   ...       0.02 
freq.    1121.28  E(vib)   ...       0.01 
freq.    1164.94  E(vib)   ...       0.01 
freq.    1449.51  E(vib)   ...       0.00 
freq.    1476.77  E(vib)   ...       0.00 
freq.    1497.06  E(vib)   ...       0.00 
freq.    1518.06  E(vib)   ...       0.00 
freq.    1728.62  E(vib)   ...       0.00 
freq.    1766.93  E(vib)   ...       0.00 
freq.    2930.15  E(vib)   ...       0.00 
freq.    2968.82  E(vib)   ...       0.00 
freq.    3052.54  E(vib)   ...       0.00 
freq.    3337.92  E(vib)   ...       0.00 
freq.    3406.14  E(vib)   ...       0.00 
freq.    3515.20  E(vib)   ...       0.00 
freq.    3556.97  E(vib)   ...       0.00 
freq.    3629.54  E(vib)   ...       0.00 

------------
INNER ENERGY
------------

The inner energy is: U= E(el) + E(ZPE) + E(vib) + E(rot) + E(trans)
    E(el)   - is the total energy from the electronic structure calculation
              = E(kin-el) + E(nuc-el) + E(el-el) + E(nuc-nuc)
    E(ZPE)  - the the zero temperature vibrational energy from the frequency calculation
    E(vib)  - the the finite temperature correction to E(ZPE) due to population
              of excited vibrational states
    E(rot)  - is the rotational thermal energy
    E(trans)- is the translational thermal energy

Summary of contributions to the inner energy U:
Electronic energy                ...  -1276.70624236 Eh
Zero point energy                ...      0.10400728 Eh      65.27 kcal/mol
Thermal vibrational correction   ...      0.00438578 Eh       2.75 kcal/mol
Thermal rotational correction    ...      0.00141627 Eh       0.89 kcal/mol
Thermal translational correction ...      0.00141627 Eh       0.89 kcal/mol
-----------------------------------------------------------------------
Total thermal energy                  -1276.59501676 Eh


Summary of corrections to the electronic energy:
(perhaps to be used in another calculation)
Total thermal correction                  0.00721832 Eh       4.53 kcal/mol
Non-thermal (ZPE) correction              0.10400728 Eh      65.27 kcal/mol
-----------------------------------------------------------------------
Total correction                          0.11122560 Eh      69.79 kcal/mol


--------
ENTHALPY
--------

The enthalpy is H = U + kB*T
                kB is Boltzmann's constant
Total free energy                 ...  -1276.59501676 Eh 
Thermal Enthalpy correction       ...      0.00094421 Eh       0.59 kcal/mol
-----------------------------------------------------------------------
Total Enthalpy                    ...  -1276.59407255 Eh


Note: Only C1 symmetry has been detected, increase convergence thresholds 
      if your molecule has a higher symmetry. Symmetry factor of 1.0 is   
      used for the rotational entropy correction. 
 

Note: Rotational entropy computed according to Herzberg 
Infrared and Raman Spectra, Chapter V,1, Van Nostrand Reinhold, 1945 
Point Group:  C1, Symmetry Number:   1  
Rotational constants in cm-1:     0.322079     0.052491     0.045892 

Vibrational entropy computed according to the QRRHO of S. Grimme
Chem.Eur.J. 2012 18 9955


-------
ENTROPY
-------

The entropy contributions are T*S = T*(S(el)+S(vib)+S(rot)+S(trans))
     S(el)   - electronic entropy
     S(vib)  - vibrational entropy
     S(rot)  - rotational entropy
     S(trans)- translational entropy
The entropies will be listed as multiplied by the temperature to get
units of energy

Electronic entropy                ...      0.00000000 Eh      0.00 kcal/mol
Vibrational entropy               ...      0.00784924 Eh      4.93 kcal/mol
Rotational entropy                ...      0.01289170 Eh      8.09 kcal/mol
Translational entropy             ...      0.01832654 Eh     11.50 kcal/mol
-----------------------------------------------------------------------
Final entropy term                ...      0.03906748 Eh     24.52 kcal/mol

In case the symmetry of your molecule has not been determined correctly
or in case you have a reason to use a different symmetry number we print 
out the resulting rotational entropy values for sn=1,12 :
 --------------------------------------------------------
|  sn= 1 | S(rot)=       0.01289170 Eh      8.09 kcal/mol|
|  sn= 2 | S(rot)=       0.01223725 Eh      7.68 kcal/mol|
|  sn= 3 | S(rot)=       0.01185441 Eh      7.44 kcal/mol|
|  sn= 4 | S(rot)=       0.01158279 Eh      7.27 kcal/mol|
|  sn= 5 | S(rot)=       0.01137210 Eh      7.14 kcal/mol|
|  sn= 6 | S(rot)=       0.01119996 Eh      7.03 kcal/mol|
|  sn= 7 | S(rot)=       0.01105441 Eh      6.94 kcal/mol|
|  sn= 8 | S(rot)=       0.01092833 Eh      6.86 kcal/mol|
|  sn= 9 | S(rot)=       0.01081713 Eh      6.79 kcal/mol|
|  sn=10 | S(rot)=       0.01071765 Eh      6.73 kcal/mol|
|  sn=11 | S(rot)=       0.01062766 Eh      6.67 kcal/mol|
|  sn=12 | S(rot)=       0.01054550 Eh      6.62 kcal/mol|
 --------------------------------------------------------


-------------------
GIBBS FREE ENERGY
-------------------

The Gibbs free energy is G = H - T*S

Total enthalpy                    ...  -1276.59407255 Eh 
Total entropy correction          ...     -0.03906748 Eh    -24.52 kcal/mol
-----------------------------------------------------------------------
Final Gibbs free energy         ...  -1276.63314003 Eh

For completeness - the Gibbs free energy minus the electronic energy
G-E(el)                           ...      0.07310233 Eh     45.87 kcal/mol



Timings for individual modules:

Sum of individual times         ...      669.647 sec (=  11.161 min)
GTO integral calculation        ...       55.794 sec (=   0.930 min)   8.3 %
SCF iterations                  ...      187.006 sec (=   3.117 min)  27.9 %
SCF Gradient evaluation         ...       62.868 sec (=   1.048 min)   9.4 %
Geometry relaxation             ...        0.958 sec (=   0.016 min)   0.1 %
Numerical frequency calculation ...      152.350 sec (=   2.539 min)  22.8 %
XTB module                      ...      105.605 sec (=   1.760 min)  15.8 %
ONIOM_Small energy and gradient ...        2.819 sec (=   0.047 min)   0.4 %
ONIOM_Large energy and gradient ...      102.246 sec (=   1.704 min)  15.3 %
                             ****ORCA TERMINATED NORMALLY****
TOTAL RUN TIME: 0 days 0 hours 11 minutes 0 seconds 432 msec
