
                                 *****************
                                 * O   R   C   A *
                                 *****************

                                            #,                                       
                                            ###                                      
                                            ####                                     
                                            #####                                    
                                            ######                                   
                                           ########,                                 
                                     ,,################,,,,,                         
                               ,,#################################,,                 
                          ,,##########################################,,             
                       ,#########################################, ''#####,          
                    ,#############################################,,   '####,        
                  ,##################################################,,,,####,       
                ,###########''''           ''''###############################       
              ,#####''   ,,,,##########,,,,          '''####'''          '####       
            ,##' ,,,,###########################,,,                        '##       
           ' ,,###''''                  '''############,,,                           
         ,,##''                                '''############,,,,        ,,,,,,###''
      ,#''                                            '''#######################'''  
     '                                                          ''''####''''         
             ,#######,   #######,   ,#######,      ##                                
            ,#'     '#,  ##    ##  ,#'     '#,    #''#        ######   ,####,        
            ##       ##  ##   ,#'  ##            #'  '#       #        #'  '#        
            ##       ##  #######   ##           ,######,      #####,   #    #        
            '#,     ,#'  ##    ##  '#,     ,#' ,#      #,         ##   #,  ,#        
             '#######'   ##     ##  '#######'  #'      '#     #####' # '####'        



                  #######################################################
                  #                        -***-                        #
                  #          Department of theory and spectroscopy      #
                  #    Directorship and core code : Frank Neese         #
                  #        Max Planck Institute fuer Kohlenforschung    #
                  #                Kaiser Wilhelm Platz 1               #
                  #                 D-45470 Muelheim/Ruhr               #
                  #                      Germany                        #
                  #                                                     #
                  #                  All rights reserved                #
                  #                        -***-                        #
                  #######################################################


                         Program Version 5.0.2 -  RELEASE  -


 With contributions from (in alphabetic order):
   Daniel Aravena         : Magnetic Suceptibility
   Michael Atanasov       : Ab Initio Ligand Field Theory (pilot matlab implementation)
   Alexander A. Auer      : GIAO ZORA, VPT2 properties, NMR spectrum
   Ute Becker             : Parallelization
   Giovanni Bistoni       : ED, misc. LED, open-shell LED, HFLD
   Martin Brehm           : Molecular dynamics
   Dmytro Bykov           : SCF Hessian
   Vijay G. Chilkuri      : MRCI spin determinant printing, contributions to CSF-ICE
   Dipayan Datta          : RHF DLPNO-CCSD density
   Achintya Kumar Dutta   : EOM-CC, STEOM-CC
   Dmitry Ganyushin       : Spin-Orbit,Spin-Spin,Magnetic field MRCI
   Miquel Garcia          : C-PCM and meta-GGA Hessian, CC/C-PCM, Gaussian charge scheme
   Yang Guo               : DLPNO-NEVPT2, F12-NEVPT2, CIM, IAO-localization
   Andreas Hansen         : Spin unrestricted coupled pair/coupled cluster methods
   Benjamin Helmich-Paris : MC-RPA, TRAH-SCF, COSX integrals
   Lee Huntington         : MR-EOM, pCC
   Robert Izsak           : Overlap fitted RIJCOSX, COSX-SCS-MP3, EOM
   Marcus Kettner         : VPT2
   Christian Kollmar      : KDIIS, OOCD, Brueckner-CCSD(T), CCSD density, CASPT2, CASPT2-K
   Simone Kossmann        : Meta GGA functionals, TD-DFT gradient, OOMP2, MP2 Hessian
   Martin Krupicka        : Initial AUTO-CI
   Lucas Lang             : DCDCAS
   Marvin Lechner         : AUTO-CI (C++ implementation), FIC-MRCC
   Dagmar Lenk            : GEPOL surface, SMD
   Dimitrios Liakos       : Extrapolation schemes; Compound Job, initial MDCI parallelization
   Dimitrios Manganas     : Further ROCIS development; embedding schemes
   Dimitrios Pantazis     : SARC Basis sets
   Anastasios Papadopoulos: AUTO-CI, single reference methods and gradients
   Taras Petrenko         : DFT Hessian,TD-DFT gradient, ASA, ECA, R-Raman, ABS, FL, XAS/XES, NRVS
   Peter Pinski           : DLPNO-MP2, DLPNO-MP2 Gradient
   Christoph Reimann      : Effective Core Potentials
   Marius Retegan         : Local ZFS, SOC
   Christoph Riplinger    : Optimizer, TS searches, QM/MM, DLPNO-CCSD(T), (RO)-DLPNO pert. Triples
   Tobias Risthaus        : Range-separated hybrids, TD-DFT gradient, RPA, STAB
   Michael Roemelt        : Original ROCIS implementation
   Masaaki Saitow         : Open-shell DLPNO-CCSD energy and density
   Barbara Sandhoefer     : DKH picture change effects
   Avijit Sen             : IP-ROCIS
   Kantharuban Sivalingam : CASSCF convergence, NEVPT2, FIC-MRCI
   Bernardo de Souza      : ESD, SOC TD-DFT
   Georgi Stoychev        : AutoAux, RI-MP2 NMR, DLPNO-MP2 response
   Willem Van den Heuvel  : Paramagnetic NMR
   Boris Wezisla          : Elementary symmetry handling
   Frank Wennmohs         : Technical directorship


 We gratefully acknowledge several colleagues who have allowed us to
 interface, adapt or use parts of their codes:
   Stefan Grimme, W. Hujo, H. Kruse, P. Pracht,  : VdW corrections, initial TS optimization,
                  C. Bannwarth, S. Ehlert          DFT functionals, gCP, sTDA/sTD-DF
   Ed Valeev, F. Pavosevic, A. Kumar             : LibInt (2-el integral package), F12 methods
   Garnet Chan, S. Sharma, J. Yang, R. Olivares  : DMRG
   Ulf Ekstrom                                   : XCFun DFT Library
   Mihaly Kallay                                 : mrcc  (arbitrary order and MRCC methods)
   Jiri Pittner, Ondrej Demel                    : Mk-CCSD
   Frank Weinhold                                : gennbo (NPA and NBO analysis)
   Christopher J. Cramer and Donald G. Truhlar   : smd solvation model
   Lars Goerigk                                  : TD-DFT with DH, B97 family of functionals
   V. Asgeirsson, H. Jonsson                     : NEB implementation
   FAccTs GmbH                                   : IRC, NEB, NEB-TS, DLPNO-Multilevel, CI-OPT
                                                   MM, QMMM, 2- and 3-layer-ONIOM, Crystal-QMMM,
                                                   LR-CPCM, SF, NACMEs, symmetry and pop. for TD-DFT,
                                                   nearIR, NL-DFT gradient (VV10), updates on ESD,
                                                   ML-optimized integration grids
   S Lehtola, MJT Oliveira, MAL Marques          : LibXC Library
   Liviu Ungur et al                             : ANISO software


 Your calculation uses the libint2 library for the computation of 2-el integrals
 For citations please refer to: http://libint.valeyev.net

 Your ORCA version has been built with support for libXC version: 5.1.0
 For citations please refer to: https://tddft.org/programs/libxc/

 This ORCA versions uses:
   CBLAS   interface :  Fast vector & matrix operations
   LAPACKE interface :  Fast linear algebra routines
   SCALAPACK package :  Parallel linear algebra routines
   Shared memory     :  Shared parallel matrices
   BLAS/LAPACK       :  OpenBLAS 0.3.15  USE64BITINT DYNAMIC_ARCH NO_AFFINITY Haswell SINGLE_THREADED
        Core in use  :  Haswell
   Copyright (c) 2011-2014, The OpenBLAS Project




***************************************
The coordinates will be read from file: mol_inp.xyz
***************************************


================================================================================

----- Orbital basis set information -----
Your calculation utilizes the basis: aug-cc-pVTZ 
    H, B-Ne : Obtained from the ccRepo (grant-hill.group.shef.ac.uk/ccrepo) Feb. 2017
              R. A. Kendall, T. H. Dunning, Jr., R. J. Harrison, J. Chem. Phys. 96, 6796 (1992)
         He : Obtained from the ccRepo (grant-hill.group.shef.ac.uk/ccrepo) Feb. 2017
              D. E. Woon, T. H. Dunning, Jr., J. Chem. Phys. 100, 2975 (1994)
  Li-Be, Na : Obtained from the ccRepo (grant-hill.group.shef.ac.uk/ccrepo) Feb. 2017
              B. P. Prascher, D. E. Woon, K. A. Peterson, T. H. Dunning, Jr., A. K. Wilson, Theor. Chem. Acc. 128, 69 (2011)
         Mg : Obtained from the Peterson Research Group Website (tyr0.chem.wsu.edu/~kipeters) Feb. 2017
              B. P. Prascher, D. E. Woon, K. A. Peterson, T. H. Dunning, Jr., A. K. Wilson, Theor. Chem. Acc. 128, 69 (2011)
      Al-Ar : Obtained from the ccRepo (grant-hill.group.shef.ac.uk/ccrepo) Feb. 2017
              D. E. Woon, T. H. Dunning, Jr., J. Chem. Phys. 98, 1358 (1993)
      Sc-Zn : Obtained from the ccRepo (grant-hill.group.shef.ac.uk/ccrepo) Feb. 2017
              N. B. Balabanov, K. A. Peterson, J. Chem. Phys. 123, 064107 (2005)
              N. B. Balabanov, K. A. Peterson, J. Chem. Phys. 125, 074110 (2006)
      Ga-Kr : Obtained from the ccRepo (grant-hill.group.shef.ac.uk/ccrepo) Feb. 2017
              A. K. Wilson, D. E. Woon, K. A. Peterson, T. H. Dunning, Jr., J. Chem. Phys. 110, 7667 (1999)
     Ag, Au : Obtained from the Peterson Research Group Website (tyr0.chem.wsu.edu/~kipeters) Feb. 2017
              K. A. Peterson, C. Puzzarini, Theor. Chem. Acc. 114, 283 (2005)

----- AuxC basis set information -----
Your calculation utilizes the auxiliary basis: aug-cc-pVTZ/C 
  H-He, B-F, Al-Ar, Ga-Kr : Obtained from the EMSL Basis Set Exchange (bse.pnl.gov) Feb. 2017
                            F. Weigend, A. Kohn, C. Hattig, J. Chem. Phys. 116, 3175 (2002)
                   Be, Mg : Obtained from the TURBOMOLE 7.0 basis set library
                            C. Haettig, Phys. Chem. Chem. Phys. 7, 59 (2005)
                       Ne : Obtained from the EMSL Basis Set Exchange (bse.pnl.gov) Feb. 2017
                            C. Haettig, Phys. Chem. Chem. Phys. 7, 59 (2005)
                            F. Weigend, A. Kohn, C. Hattig, J. Chem. Phys. 116, 3175 (2002)
                    Sc-Zn : Obtained from the EMSL Basis Set Exchange (bse.pnl.gov) Feb. 2017
                            J. G. Hill, J. A. Platts, J. Chem. Phys. 128, 044104 (2008)

================================================================================
                                        WARNINGS
                       Please study these warnings very carefully!
================================================================================


WARNING: Post HF methods need fully converged wavefunctions
  ===> : Setting SCFConvForced true
         You can overwrite this default with %scf ConvForced false 


WARNING: MDCI localization with Augmented Hessian Foster-Boys
  ===> : Switching off randomization!

INFO   : the flag for use of the SHARK integral package has been found!

================================================================================
                                       INPUT FILE
================================================================================
NAME = mol_def.inp
|  1> ! DLPNO-CCSD(T) aug-cc-pVTZ aug-cc-pVTZ/C TightPNO 
|  2> %maxcore 500
|  3> %pal
|  4> nprocs 7
|  5> end
|  6> *xyzfile 0 1 mol_inp.xyz 
|  7> 
|  8> 
|  9>                          ****END OF INPUT****
================================================================================

                       ****************************
                       * Single Point Calculation *
                       ****************************

---------------------------------
CARTESIAN COORDINATES (ANGSTROEM)
---------------------------------
  C     -7.606823   -6.185609   -8.665396
  O     -6.254148   -6.339586   -8.283159
  H     -7.714315   -6.601587   -9.665660
  H     -6.140880   -5.918508   -7.413600
  H     -8.296331   -6.721365   -8.002909
  H     -7.917318   -5.135624   -8.705110

----------------------------
CARTESIAN COORDINATES (A.U.)
----------------------------
  NO LB      ZA    FRAG     MASS         X           Y           Z
   0 C     6.0000    0    12.011  -14.374812  -11.689107  -16.375225
   1 O     8.0000    0    15.999  -11.818627  -11.980081  -15.652902
   2 H     1.0000    0     1.008  -14.577943  -12.475191  -18.265450
   3 H     1.0000    0     1.008  -11.604581  -11.184359  -14.009674
   4 H     1.0000    0     1.008  -15.677794  -12.701539  -15.123306
   5 H     1.0000    0     1.008  -14.961563   -9.704923  -16.450274

--------------------------------
INTERNAL COORDINATES (ANGSTROEM)
--------------------------------
 C      0   0   0     0.000000000000     0.00000000     0.00000000
 O      1   0   0     1.414052225458     0.00000000     0.00000000
 H      1   2   0     1.088632305346   107.53072526     0.00000000
 H      2   1   3     0.972763679621   107.81139145   176.44872325
 H      1   2   3     1.096058756988   112.65389964   118.69245209
 H      1   2   3     1.095651790966   112.65851160   241.42153894

---------------------------
INTERNAL COORDINATES (A.U.)
---------------------------
 C      0   0   0     0.000000000000     0.00000000     0.00000000
 O      1   0   0     2.672171445178     0.00000000     0.00000000
 H      1   2   0     2.057216917644   107.53072526     0.00000000
 H      2   1   3     1.838256947508   107.81139145   176.44872325
 H      1   2   3     2.071250877393   112.65389964   118.69245209
 H      1   2   3     2.070481823065   112.65851160   241.42153894

---------------------
BASIS SET INFORMATION
---------------------
There are 3 groups of distinct atoms

 Group   1 Type C   : 19s6p3d2f contracted to 5s4p3d2f pattern {88111/3111/111/11}
 Group   2 Type O   : 19s6p3d2f contracted to 5s4p3d2f pattern {88111/3111/111/11}
 Group   3 Type H   : 6s3p2d contracted to 4s3p2d pattern {3111/111/11}

Atom   0C    basis set group =>   1
Atom   1O    basis set group =>   2
Atom   2H    basis set group =>   3
Atom   3H    basis set group =>   3
Atom   4H    basis set group =>   3
Atom   5H    basis set group =>   3
---------------------------------
AUXILIARY/C BASIS SET INFORMATION
---------------------------------
There are 3 groups of distinct atoms

 Group   1 Type C   : 9s7p6d4f2g contracted to 9s7p6d4f2g pattern {111111111/1111111/111111/1111/11}
 Group   2 Type O   : 9s7p6d4f2g contracted to 9s7p6d4f2g pattern {111111111/1111111/111111/1111/11}
 Group   3 Type H   : 5s4p3d2f contracted to 5s4p3d2f pattern {11111/1111/111/11}

Atom   0C    basis set group =>   1
Atom   1O    basis set group =>   2
Atom   2H    basis set group =>   3
Atom   3H    basis set group =>   3
Atom   4H    basis set group =>   3
Atom   5H    basis set group =>   3


           ************************************************************
           *        Program running with 7 parallel MPI-processes     *
           *              working on a common directory               *
           ************************************************************
------------------------------------------------------------------------------
                           ORCA GTO INTEGRAL CALCULATION
------------------------------------------------------------------------------
------------------------------------------------------------------------------
                   ___                                                        
                  /   \      - P O W E R E D   B Y -                         
                 /     \                                                     
                 |  |  |   _    _      __       _____    __    __             
                 |  |  |  | |  | |    /  \     |  _  \  |  |  /  |          
                  \  \/   | |  | |   /    \    | | | |  |  | /  /          
                 / \  \   | |__| |  /  /\  \   | |_| |  |  |/  /          
                |  |  |   |  __  | /  /__\  \  |    /   |      \           
                |  |  |   | |  | | |   __   |  |    \   |  |\   \          
                \     /   | |  | | |  |  |  |  | |\  \  |  | \   \       
                 \___/    |_|  |_| |__|  |__|  |_| \__\ |__|  \__/        
                                                                              
                      - O R C A' S   B I G   F R I E N D -                    
                                      &                                       
                       - I N T E G R A L  F E E D E R -                       
                                                                              
 v1 FN, 2020, v2 2021                                                         
------------------------------------------------------------------------------


Reading SHARK input file mol_def.SHARKINP.tmp ... ok
----------------------
SHARK INTEGRAL PACKAGE
----------------------

Number of atoms                             ...      6
Number of basis functions                   ...    196
Number of shells                            ...     76
Maximum angular momentum                    ...      3
Integral batch strategy                     ... SHARK/LIBINT Hybrid
RI-J (if used) integral strategy            ... SPLIT-RIJ (Revised 2003 algorithm where possible)
Printlevel                                  ...      1
Contraction scheme used                     ... PARTIAL GENERAL contraction
Coulomb Range Separation                    ... NOT USED
Exchange Range Separation                   ... NOT USED
Finite Nucleus Model                        ... NOT USED
Auxiliary Coulomb fitting basis             ... NOT available
Auxiliary J/K fitting basis                 ... NOT available
Auxiliary Correlation fitting basis         ... AVAILABLE
   # of basis functions in Aux-C            ...    396
   # of shells in Aux-C                     ...    112
   Maximum angular momentum in Aux-C        ...      4
Auxiliary 'external' fitting basis          ... NOT available
Integral threshold                          ...     1.000000e-10
Primitive cut-off                           ...     1.000000e-11
Primitive pair pre-selection threshold      ...     1.000000e-11

Calculating pre-screening integrals         ... done (  0.0 sec) Dimension = 76
Calculating pre-screening integrals (ORCA)  ... done (  0.1 sec) Dimension = 64
Organizing shell pair data                  ... done (  0.0 sec)
Shell pair information
Total number of shell pairs                 ...      2926
Shell pairs after pre-screening             ...      2882
Total number of primitive shell pairs       ...      3934
Primitive shell pairs kept                  ...      3731
          la=0 lb=0:    697 shell pairs
          la=1 lb=0:    760 shell pairs
          la=1 lb=1:    210 shell pairs
          la=2 lb=0:    532 shell pairs
          la=2 lb=1:    280 shell pairs
          la=2 lb=2:    105 shell pairs
          la=3 lb=0:    152 shell pairs
          la=3 lb=1:     80 shell pairs
          la=3 lb=2:     56 shell pairs
          la=3 lb=3:     10 shell pairs

Calculating one electron integrals          ... done (  0.0 sec)
Calculating RI/C V-Matrix + Cholesky decomp.... done (  0.0 sec)
Calculating Nuclear repulsion               ... done (  0.0 sec) ENN=     40.318781955526 Eh

SHARK setup successfully completed in   0.5 seconds

Maximum memory used throughout the entire GTOINT-calculation: 19.5 MB


           ************************************************************
           *        Program running with 7 parallel MPI-processes     *
           *              working on a common directory               *
           ************************************************************
-------------------------------------------------------------------------------
                                 ORCA SCF
-------------------------------------------------------------------------------

------------
SCF SETTINGS
------------
Hamiltonian:
 Ab initio Hamiltonian  Method          .... Hartree-Fock(GTOs)


General Settings:
 Integral files         IntName         .... mol_def
 Hartree-Fock type      HFTyp           .... RHF
 Total Charge           Charge          ....    0
 Multiplicity           Mult            ....    1
 Number of Electrons    NEL             ....   18
 Basis Dimension        Dim             ....  184
 Nuclear Repulsion      ENuc            ....     40.3187819555 Eh

Convergence Acceleration:
 DIIS                   CNVDIIS         .... on
   Start iteration      DIISMaxIt       ....    12
   Startup error        DIISStart       ....  0.200000
   # of expansion vecs  DIISMaxEq       ....     5
   Bias factor          DIISBfac        ....   1.050
   Max. coefficient     DIISMaxC        ....  10.000
 Trust-Rad. Augm. Hess. CNVTRAH         .... auto
   Auto Start mean grad. ratio tolernc. ....  1.125000
   Auto Start start iteration           ....    20
   Auto Start num. interpolation iter.  ....    10
   Max. Number of Micro iterations      ....    16
   Max. Number of Macro iterations      .... Maxiter - #DIIS iter
   Number of Davidson start vectors     ....     2
   Converg. threshold I  (grad. norm)   ....   5.000e-05
   Converg. threshold II (energy diff.) ....   1.000e-06
   Grad. Scal. Fac. for Micro threshold ....   0.100
   Minimum threshold for Micro iter.    ....   0.010
   NR start threshold (gradient norm)   ....   0.001
   Initial trust radius                 ....   0.400
   Minimum AH scaling param. (alpha)    ....   1.000
   Maximum AH scaling param. (alpha)    .... 1000.000
   Orbital update algorithm             .... Taylor
   White noise on init. David. guess    .... on
   Maximum white noise                  ....   0.010
   Quad. conv. algorithm                .... NR
 SOSCF                  CNVSOSCF        .... on
   Start iteration      SOSCFMaxIt      ....   150
   Startup grad/error   SOSCFStart      ....  0.003300
 Level Shifting         CNVShift        .... on
   Level shift para.    LevelShift      ....    0.2500
   Turn off err/grad.   ShiftErr        ....    0.0010
 Zerner damping         CNVZerner       .... off
 Static damping         CNVDamp         .... on
   Fraction old density DampFac         ....    0.7000
   Max. Damping (<1)    DampMax         ....    0.9800
   Min. Damping (>=0)   DampMin         ....    0.0000
   Turn off err/grad.   DampErr         ....    0.1000
 Fernandez-Rico         CNVRico         .... off

SCF Procedure:
 Maximum # iterations   MaxIter         ....   125
 SCF integral mode      SCFMode         .... Direct
   Integral package                     .... SHARK and LIBINT hybrid scheme
 Reset frequency        DirectResetFreq ....    20
 Integral Threshold     Thresh          ....  1.000e-10 Eh
 Primitive CutOff       TCut            ....  1.000e-11 Eh

Convergence Tolerance:
 Convergence Check Mode ConvCheckMode   .... Total+1el-Energy
 Convergence forced     ConvForced      .... 1
 Energy Change          TolE            ....  1.000e-06 Eh
 1-El. energy change                    ....  1.000e-03 Eh
 Orbital Gradient       TolG            ....  5.000e-05
 Orbital Rotation angle TolX            ....  5.000e-05
 DIIS Error             TolErr          ....  1.000e-06


Diagonalization of the overlap matrix:
Smallest eigenvalue                        ... 6.339e-05
Time for diagonalization                   ...    0.036 sec
Threshold for overlap eigenvalues          ... 1.000e-08
Number of eigenvalues below threshold      ... 0
Time for construction of square roots      ...    0.008 sec
Total time needed                          ...    0.045 sec

Time for model grid setup =    0.099 sec

------------------------------
INITIAL GUESS: MODEL POTENTIAL
------------------------------
Loading Hartree-Fock densities                     ... done
Calculating cut-offs                               ... done
Initializing the effective Hamiltonian             ... done
Setting up the integral package (SHARK)            ... done
Starting the Coulomb interaction                   ... done (   0.1 sec)
Reading the grid                                   ... done
Mapping shells                                     ... done
Starting the XC term evaluation                    ... done (   0.0 sec)
Transforming the Hamiltonian                       ... done (   0.0 sec)
Diagonalizing the Hamiltonian                      ... done (   0.0 sec)
Back transforming the eigenvectors                 ... done (   0.0 sec)
Now organizing SCF variables                       ... done
                      ------------------
                      INITIAL GUESS DONE (   0.2 sec)
                      ------------------
--------------
SCF ITERATIONS
--------------
ITER       Energy         Delta-E        Max-DP      RMS-DP      [F,P]     Damp
               ***  Starting incremental Fock matrix formation  ***
  0   -114.9695723504   0.000000000000 0.02780394  0.00065480  0.3002988 0.7000
  1   -115.0137698591  -0.044197508754 0.02042793  0.00047493  0.1800755 0.7000
                               ***Turning on DIIS***
  2   -115.0393261944  -0.025556335224 0.01487579  0.00030378  0.1104334 0.7000
  3   -115.3115989156  -0.272272721224 0.03728106  0.00067228  0.0830550 0.0000
  4   -115.0694314092   0.242167506392 0.00503502  0.00009933  0.0062889 0.0000
                      *** Initiating the SOSCF procedure ***
                           *** Shutting down DIIS ***
                      *** Re-Reading the Fockian *** 
                      *** Removing any level shift *** 
ITER      Energy       Delta-E        Grad      Rot      Max-DP    RMS-DP
  5   -115.09020894  -0.0207775344  0.000989  0.000989  0.001374  0.000037
               *** Restarting incremental Fock matrix formation ***
  6   -115.09135993  -0.0011509868  0.000329  0.000519  0.001086  0.000018
  7   -115.09136587  -0.0000059375  0.000150  0.000427  0.000409  0.000011
  8   -115.09136699  -0.0000011183  0.000066  0.000051  0.000051  0.000002
                 **** Energy Check signals convergence ****
              ***Rediagonalizing the Fockian in SOSCF/NRSCF***

               *****************************************************
               *                     SUCCESS                       *
               *           SCF CONVERGED AFTER   9 CYCLES          *
               *****************************************************


----------------
TOTAL SCF ENERGY
----------------

Total Energy       :         -115.09136708 Eh           -3131.79532 eV

Components:
Nuclear Repulsion  :           40.31878196 Eh            1097.12983 eV
Electronic Energy  :         -155.41014903 Eh           -4228.92515 eV
One Electron Energy:         -236.87177302 Eh           -6445.60863 eV
Two Electron Energy:           81.46162398 Eh            2216.68348 eV

Virial components:
Potential Energy   :         -229.98569116 Eh           -6258.22882 eV
Kinetic Energy     :          114.89432408 Eh            3126.43350 eV
Virial Ratio       :            2.00171499


---------------
SCF CONVERGENCE
---------------

  Last Energy change         ...   -9.3205e-08  Tolerance :   1.0000e-06
  Last MAX-Density change    ...    3.4104e-05  Tolerance :   1.0000e-05
  Last RMS-Density change    ...    5.7995e-07  Tolerance :   1.0000e-06
  Last Orbital Gradient      ...    1.4690e-05  Tolerance :   5.0000e-05
  Last Orbital Rotation      ...    1.0854e-05  Tolerance :   5.0000e-05

             **** THE GBW FILE WAS UPDATED (mol_def.gbw) ****
             **** DENSITY mol_def.scfp WAS UPDATED ****
             **** ENERGY FILE WAS UPDATED (mol_def.en.tmp) ****
             **** THE GBW FILE WAS UPDATED (mol_def.gbw) ****
             **** DENSITY mol_def.scfp WAS UPDATED ****
----------------
ORBITAL ENERGIES
----------------

  NO   OCC          E(Eh)            E(eV) 
   0   2.0000     -20.561787      -559.5147 
   1   2.0000     -11.271395      -306.7103 
   2   2.0000      -1.357979       -36.9525 
   3   2.0000      -0.924116       -25.1465 
   4   2.0000      -0.690549       -18.7908 
   5   2.0000      -0.619675       -16.8622 
   6   2.0000      -0.595261       -16.1979 
   7   2.0000      -0.502891       -13.6844 
   8   2.0000      -0.450910       -12.2699 
   9   0.0000       0.028413         0.7731 
  10   0.0000       0.042797         1.1646 
  11   0.0000       0.046783         1.2730 
  12   0.0000       0.053093         1.4447 
  13   0.0000       0.099126         2.6974 
  14   0.0000       0.116551         3.1715 
  15   0.0000       0.129023         3.5109 
  16   0.0000       0.139952         3.8083 
  17   0.0000       0.165434         4.5017 
  18   0.0000       0.172744         4.7006 
  19   0.0000       0.182610         4.9691 
  20   0.0000       0.211445         5.7537 
  21   0.0000       0.216070         5.8796 
  22   0.0000       0.267813         7.2876 
  23   0.0000       0.268906         7.3173 
  24   0.0000       0.292880         7.9697 
  25   0.0000       0.300518         8.1775 
  26   0.0000       0.319999         8.7076 
  27   0.0000       0.322032         8.7629 
  28   0.0000       0.333233         9.0677 
  29   0.0000       0.343365         9.3434 
  30   0.0000       0.351840         9.5741 
  31   0.0000       0.369767        10.0619 
  32   0.0000       0.391529        10.6540 
  33   0.0000       0.408781        11.1235 
  34   0.0000       0.432746        11.7756 
  35   0.0000       0.437281        11.8990 
  36   0.0000       0.445958        12.1351 
  37   0.0000       0.453900        12.3512 
  38   0.0000       0.460334        12.5263 
  39   0.0000       0.480325        13.0703 
  40   0.0000       0.507190        13.8013 
  41   0.0000       0.514614        14.0033 
  42   0.0000       0.526584        14.3291 
  43   0.0000       0.664545        18.0832 
  44   0.0000       0.668316        18.1858 
  45   0.0000       0.680743        18.5240 
  46   0.0000       0.754001        20.5174 
  47   0.0000       0.769876        20.9494 
  48   0.0000       0.779171        21.2023 
  49   0.0000       0.791706        21.5434 
  50   0.0000       0.804732        21.8979 
  51   0.0000       0.846135        23.0245 
  52   0.0000       0.859811        23.3967 
  53   0.0000       0.887989        24.1634 
  54   0.0000       0.900720        24.5098 
  55   0.0000       0.932184        25.3660 
  56   0.0000       0.933880        25.4122 
  57   0.0000       0.937895        25.5214 
  58   0.0000       0.949252        25.8304 
  59   0.0000       0.973001        26.4767 
  60   0.0000       0.979762        26.6607 
  61   0.0000       0.982860        26.7450 
  62   0.0000       1.015320        27.6283 
  63   0.0000       1.042623        28.3712 
  64   0.0000       1.070451        29.1284 
  65   0.0000       1.071259        29.1504 
  66   0.0000       1.095207        29.8021 
  67   0.0000       1.110302        30.2129 
  68   0.0000       1.121202        30.5095 
  69   0.0000       1.138673        30.9849 
  70   0.0000       1.146180        31.1891 
  71   0.0000       1.177622        32.0447 
  72   0.0000       1.199694        32.6453 
  73   0.0000       1.205494        32.8032 
  74   0.0000       1.251407        34.0525 
  75   0.0000       1.294778        35.2327 
  76   0.0000       1.317368        35.8474 
  77   0.0000       1.369869        37.2760 
  78   0.0000       1.406367        38.2692 
  79   0.0000       1.437311        39.1112 
  80   0.0000       1.529807        41.6282 
  81   0.0000       1.550931        42.2030 
  82   0.0000       1.557960        42.3943 
  83   0.0000       1.594374        43.3851 
  84   0.0000       1.600514        43.5522 
  85   0.0000       1.611507        43.8513 
  86   0.0000       1.653879        45.0043 
  87   0.0000       1.660129        45.1744 
  88   0.0000       1.672453        45.5098 
  89   0.0000       1.699306        46.2405 
  90   0.0000       1.731412        47.1141 
  91   0.0000       1.753877        47.7254 
  92   0.0000       1.886067        51.3225 
  93   0.0000       1.932301        52.5806 
  94   0.0000       1.959719        53.3267 
  95   0.0000       1.973938        53.7136 
  96   0.0000       2.032586        55.3095 
  97   0.0000       2.038076        55.4589 
  98   0.0000       2.070874        56.3514 
  99   0.0000       2.081147        56.6309 
 100   0.0000       2.162507        58.8448 
 101   0.0000       2.176945        59.2377 
 102   0.0000       2.380451        64.7754 
 103   0.0000       2.462932        67.0198 
 104   0.0000       2.484692        67.6119 
 105   0.0000       2.513500        68.3958 
 106   0.0000       2.558054        69.6082 
 107   0.0000       2.595255        70.6205 
 108   0.0000       2.726196        74.1836 
 109   0.0000       2.756546        75.0094 
 110   0.0000       2.784794        75.7781 
 111   0.0000       2.838281        77.2336 
 112   0.0000       2.889892        78.6380 
 113   0.0000       2.942053        80.0573 
 114   0.0000       2.982047        81.1456 
 115   0.0000       3.050070        82.9966 
 116   0.0000       3.179639        86.5224 
 117   0.0000       3.321069        90.3709 
 118   0.0000       3.380833        91.9972 
 119   0.0000       3.531039        96.0844 
 120   0.0000       3.552356        96.6645 
 121   0.0000       3.579002        97.3896 
 122   0.0000       3.625365        98.6512 
 123   0.0000       3.634784        98.9075 
 124   0.0000       3.697540       100.6152 
 125   0.0000       3.768758       102.5531 
 126   0.0000       3.854682       104.8912 
 127   0.0000       3.883704       105.6810 
 128   0.0000       3.936784       107.1253 
 129   0.0000       3.946443       107.3882 
 130   0.0000       3.988750       108.5394 
 131   0.0000       4.063177       110.5647 
 132   0.0000       4.088073       111.2421 
 133   0.0000       4.101404       111.6049 
 134   0.0000       4.160929       113.2246 
 135   0.0000       4.201791       114.3365 
 136   0.0000       4.225102       114.9709 
 137   0.0000       4.226387       115.0058 
 138   0.0000       4.280788       116.4862 
 139   0.0000       4.469937       121.6332 
 140   0.0000       4.491572       122.2219 
 141   0.0000       4.511315       122.7591 
 142   0.0000       4.551189       123.8441 
 143   0.0000       4.593987       125.0087 
 144   0.0000       4.642014       126.3156 
 145   0.0000       4.752460       129.3210 
 146   0.0000       4.754396       129.3737 
 147   0.0000       4.760703       129.5453 
 148   0.0000       4.901784       133.3843 
 149   0.0000       4.956120       134.8629 
 150   0.0000       5.008857       136.2979 
 151   0.0000       5.030894       136.8976 
 152   0.0000       5.061420       137.7282 
 153   0.0000       5.122745       139.3970 
 154   0.0000       5.228503       142.2748 
 155   0.0000       5.250544       142.8746 
 156   0.0000       5.362268       145.9147 
 157   0.0000       5.450797       148.3237 
 158   0.0000       5.509997       149.9346 
 159   0.0000       5.575911       151.7283 
 160   0.0000       5.598525       152.3436 
 161   0.0000       5.604917       152.5175 
 162   0.0000       5.711856       155.4275 
 163   0.0000       6.083319       165.5355 
 164   0.0000       6.106865       166.1762 
 165   0.0000       6.124288       166.6503 
 166   0.0000       6.160723       167.6418 
 167   0.0000       6.561880       178.5578 
 168   0.0000       6.614086       179.9784 
 169   0.0000       6.626914       180.3275 
 170   0.0000       6.877910       187.1574 
 171   0.0000       6.893625       187.5851 
 172   0.0000       7.066443       192.2877 
 173   0.0000       7.260740       197.5748 
 174   0.0000       7.281552       198.1411 
 175   0.0000       7.367128       200.4697 
 176   0.0000       7.452601       202.7956 
 177   0.0000       7.524584       204.7543 
 178   0.0000       7.730208       210.3497 
 179   0.0000       7.837071       213.2575 
 180   0.0000       8.132548       221.2979 
 181   0.0000       8.481618       230.7966 
 182   0.0000      15.406235       419.2250 
 183   0.0000      17.609640       479.1827 

                    ********************************
                    * MULLIKEN POPULATION ANALYSIS *
                    ********************************

-----------------------
MULLIKEN ATOMIC CHARGES
-----------------------
   0 C :   -0.620079
   1 O :   -0.512550
   2 H :    0.323368
   3 H :    0.206597
   4 H :    0.297752
   5 H :    0.304912
Sum of atomic charges:   -0.0000000

--------------------------------
MULLIKEN REDUCED ORBITAL CHARGES
--------------------------------
  0 C s       :     3.254431  s :     3.254431
      pz      :     1.185904  p :     3.118386
      px      :     0.745775
      py      :     1.186707
      dz2     :     0.042424  d :     0.227733
      dxz     :     0.058657
      dyz     :     0.017934
      dx2y2   :     0.045355
      dxy     :     0.063363
      f0      :     0.001545  f :     0.019529
      f+1     :     0.002415
      f-1     :     0.002139
      f+2     :     0.002571
      f-2     :     0.004134
      f+3     :     0.001552
      f-3     :     0.005173
  1 O s       :     3.872655  s :     3.872655
      pz      :     1.410245  p :     4.607130
      px      :     1.411651
      py      :     1.785233
      dz2     :     0.008823  d :     0.030221
      dxz     :     0.003433
      dyz     :     0.004049
      dx2y2   :     0.009236
      dxy     :     0.004680
      f0      :     0.000230  f :     0.002545
      f+1     :     0.000141
      f-1     :     0.000519
      f+2     :     0.000416
      f-2     :     0.000033
      f+3     :     0.000709
      f-3     :     0.000499
  2 H s       :     0.647791  s :     0.647791
      pz      :     0.017873  p :     0.028802
      px      :     0.004338
      py      :     0.006591
      dz2     :    -0.000009  d :     0.000038
      dxz     :    -0.000550
      dyz     :     0.000184
      dx2y2   :     0.000007
      dxy     :     0.000406
  3 H s       :     0.675470  s :     0.675470
      pz      :     0.017488  p :     0.095434
      px      :     0.040953
      py      :     0.036992
      dz2     :     0.005183  d :     0.022500
      dxz     :     0.009047
      dyz     :     0.003964
      dx2y2   :     0.002403
      dxy     :     0.001903
  4 H s       :     0.667384  s :     0.667384
      pz      :     0.012413  p :     0.033991
      px      :     0.013438
      py      :     0.008140
      dz2     :     0.000805  d :     0.000873
      dxz     :     0.000099
      dyz     :     0.000181
      dx2y2   :    -0.000699
      dxy     :     0.000486
  5 H s       :     0.662702  s :     0.662702
      pz      :     0.001042  p :     0.031539
      px      :     0.009322
      py      :     0.021174
      dz2     :    -0.000791  d :     0.000847
      dxz     :     0.000179
      dyz     :     0.001860
      dx2y2   :     0.000367
      dxy     :    -0.000767


                     *******************************
                     * LOEWDIN POPULATION ANALYSIS *
                     *******************************

----------------------
LOEWDIN ATOMIC CHARGES
----------------------
   0 C :    0.308545
   1 O :    0.760950
   2 H :   -0.199399
   3 H :   -0.490515
   4 H :   -0.189693
   5 H :   -0.189888

-------------------------------
LOEWDIN REDUCED ORBITAL CHARGES
-------------------------------
  0 C s       :     2.473380  s :     2.473380
      pz      :     0.775414  p :     2.192296
      px      :     0.626045
      py      :     0.790837
      dz2     :     0.128182  d :     0.703884
      dxz     :     0.166375
      dyz     :     0.053722
      dx2y2   :     0.173751
      dxy     :     0.181854
      f0      :     0.024522  f :     0.321896
      f+1     :     0.063921
      f-1     :     0.014844
      f+2     :     0.046885
      f-2     :     0.033958
      f+3     :     0.054021
      f-3     :     0.083744
  1 O s       :     3.015540  s :     3.015540
      pz      :     1.254438  p :     3.898877
      px      :     1.234112
      py      :     1.410326
      dz2     :     0.052238  d :     0.259748
      dxz     :     0.072930
      dyz     :     0.020421
      dx2y2   :     0.052327
      dxy     :     0.061833
      f0      :     0.005989  f :     0.064886
      f+1     :     0.012453
      f-1     :     0.005723
      f+2     :     0.012041
      f-2     :     0.002975
      f+3     :     0.010437
      f-3     :     0.015269
  2 H s       :     0.669233  s :     0.669233
      pz      :     0.142588  p :     0.303632
      px      :     0.061787
      py      :     0.099257
      dz2     :     0.065975  d :     0.226534
      dxz     :     0.063963
      dyz     :     0.058544
      dx2y2   :     0.027973
      dxy     :     0.010079
  3 H s       :     0.592560  s :     0.592560
      pz      :     0.226460  p :     0.529659
      px      :     0.130269
      py      :     0.172930
      dz2     :     0.114667  d :     0.368296
      dxz     :     0.095248
      dyz     :     0.102323
      dx2y2   :     0.032644
      dxy     :     0.023413
  4 H s       :     0.673279  s :     0.673279
      pz      :     0.112049  p :     0.299349
      px      :     0.083029
      py      :     0.104271
      dz2     :     0.065361  d :     0.217064
      dxz     :     0.034639
      dyz     :     0.031134
      dx2y2   :     0.058676
      dxy     :     0.027254
  5 H s       :     0.672269  s :     0.672269
      pz      :     0.085585  p :     0.299959
      px      :     0.062011
      py      :     0.152364
      dz2     :     0.016485  d :     0.217659
      dxz     :     0.008325
      dyz     :     0.081777
      dx2y2   :     0.058825
      dxy     :     0.052247


                      *****************************
                      * MAYER POPULATION ANALYSIS *
                      *****************************

  NA   - Mulliken gross atomic population
  ZA   - Total nuclear charge
  QA   - Mulliken gross atomic charge
  VA   - Mayer's total valence
  BVA  - Mayer's bonded valence
  FA   - Mayer's free valence

  ATOM       NA         ZA         QA         VA         BVA        FA
  0 C      6.6201     6.0000    -0.6201     3.5864     3.5864     0.0000
  1 O      8.5126     8.0000    -0.5126     1.8415     1.8415    -0.0000
  2 H      0.6766     1.0000     0.3234     0.9581     0.9581    -0.0000
  3 H      0.7934     1.0000     0.2066     1.0275     1.0275    -0.0000
  4 H      0.7022     1.0000     0.2978     0.9929     0.9929     0.0000
  5 H      0.6951     1.0000     0.3049     0.9815     0.9815    -0.0000

  Mayer bond orders larger than 0.100000
B(  0-C ,  1-O ) :   0.8273 B(  0-C ,  2-H ) :   0.9061 B(  0-C ,  4-H ) :   0.9070 
B(  0-C ,  5-H ) :   0.8994 B(  1-O ,  3-H ) :   0.9744 

-------
TIMINGS
-------

Total SCF time: 0 days 0 hours 0 min 10 sec 

Total time                  ....      10.338 sec
Sum of individual times     ....       9.914 sec  ( 95.9%)

Fock matrix formation       ....       9.489 sec  ( 91.8%)
Diagonalization             ....       0.098 sec  (  0.9%)
Density matrix formation    ....       0.003 sec  (  0.0%)
Population analysis         ....       0.024 sec  (  0.2%)
Initial guess               ....       0.095 sec  (  0.9%)
Orbital Transformation      ....       0.000 sec  (  0.0%)
Orbital Orthonormalization  ....       0.000 sec  (  0.0%)
DIIS solution               ....       0.068 sec  (  0.7%)
SOSCF solution              ....       0.038 sec  (  0.4%)

Maximum memory used throughout the entire SCF-calculation: 230.0 MB


           ************************************************************
           *        Program running with 7 parallel MPI-processes     *
           *              working on a common directory               *
           ************************************************************


--------------------------------------------------------------------------------
                             ORCA-MATRIX DRIVEN CI
--------------------------------------------------------------------------------


Wavefunction type
-----------------
Correlation treatment                      ...      CCSD     
Single excitations                         ... ON
Orbital optimization                       ... OFF
Calculation of Z vector                    ... OFF
Calculation of Brueckner orbitals          ... OFF
Perturbative triple excitations            ... ON
Calculation of F12 correction              ... OFF
Frozen core treatment                      ... chemical core (4 el)
Reference Wavefunction                     ... RHF
  Internal Orbitals:     2 ...    8 (  7 MO's/ 14 electrons)
  Virtual  Orbitals:     9 ...  183 (175 MO's              )
Number of AO's                             ...    184
Number of electrons                        ...     18
Number of correlated electrons             ...     14

Algorithmic settings
--------------------
Integral transformation                    ... All integrals via the RI transformation
K(C) Formation                             ... RI-DLPNO
   PNO-Integral Storage                    ... ON DISK
   PNO occupation number cut-off           ... 1.000e-07
   Singles PNO occupation number cut-off   ... 3.000e-09
   PNO Mulliken prescreening cut-off       ... 1.000e-03
   Domain cut-off (Mulliken population)    ... 1.000e-03
   PNO Normalization                       ...    1
Maximum number of iterations               ...        50
Convergence tolerance (max. residuum)      ... 2.500e-05
Level shift for amplitude update           ... 2.000e-01
Maximum number of DIIS vectors             ...         7
DIIS turned on at iteration                ...         0
Damping before turning on DIIS             ...     0.500
Damping after turning on DIIS              ...     0.000
Pair specific amplitude update             ... OFF
Natural orbital iterations                 ... OFF
Perturbative natural orbital generation    ... OFF
Printlevel                                 ... 2

Singles Fock matrix elements calculated using PNOs.

Memory handling:
----------------
Maximum memory for working arrays          ...    500 MB
Data storage in matrix containers          ... UNCOMPRESSED
Data type for integral storage             ... DOUBLE
In-Core Storage of quantities:
   Amplitudes+Sigma Vector      ... NO
   J+K operators                ... NO
   DIIS vectors                 ... NO
   3-external integrals         ... NO
   4-external integrals         ... NO

Localization treatment:
-----------------------
Localization option                        ...    6
Localization threshhold                    ... -1.0e+00
Using relative localization threshhold     ... 1.0e-08
Neglect threshold for strong pairs         ... 1.000e-05 Eh
Prescreening threshold for very weak pairs ... 1.000e-07 Eh

Initializing the integral package          ... done
Localizing the valence orbitals
------------------------------------------------------------------------------
                           ORCA ORBITAL LOCALIZATION
------------------------------------------------------------------------------

Input orbitals are from                  ... mol_def.gbw
Output orbitals are to                   ... mol_def.loc
Max. number of iterations                ... 128
Localizations seeded randomly            ... off
Convergence tolerance                    ... 1.000e-06
Using relative localization threshhold   ... 1.000e-08
Treshold for strong local MOs            ... 9.500e-01
Treshold for bond MOs                    ... 8.500e-01
Operator                                 ... 0
Orbital range for localization           ... 2 to 8
Localization criterion                   ... FOSTER-BOYS (AUGMENTED HESSIAN)
Doing the dipole integrals     ... o.k.
Initial value of the localization sum :  3992.249725
ITERATION   0 : L= 4001.3821797906 DL=  9.13e+00 (AVERGE_DL)=    0.6594533972 
ITERATION   1 : L= 4001.7368400220 DL=  3.55e-01 (AVERGE_DL)=    0.1299560789 
ITERATION   2 : L= 4001.7499762877 DL=  1.31e-02 (AVERGE_DL)=    0.0250107269 
ITERATION   3 : L= 4001.7508644159 DL=  8.88e-04 (AVERGE_DL)=    0.0065032162 
ITERATION   4 : L= 4001.7509613646 DL=  9.69e-05 (AVERGE_DL)=    0.0021486283 
ITERATION   5 : L= 4001.7509704947 DL=  9.13e-06 (AVERGE_DL)=    0.0006593671 
ITERATION   6 : L= 4001.7509713118 DL=  8.17e-07 (AVERGE_DL)=    0.0001972539 
LOCALIZATION SUM CONVERGED

------------------------------------------------------
AUGMENTED HESSIAN OPTIMIZATION OF FOSTER-BOYS ORBITALS
------------------------------------------------------

Spin operator:           0
Orbital window:          2 to 8
Number of iterations:    128
Gradient tolerance:      1.000e-06
Number of pairs:         21
Davidson threshold:      2000
Diagonalization method:  LAPACK
Iter:    0   L: 4001.7509713118   Grad. norm: 5.358351e-04
   *** Likely close to a maximum now. ***
       Augmented Hessian eigenvalues:  1.52e-07 -1.39e+00 -3.52e+00 -5.13e+00 ... 
Iter:    1   L: 4001.7509713880   Grad. norm: 7.550978e-08
LOCALIZATION HAS CONVERGED.

Eigenvalues of the Hessian:
  0 -1.394e+00
  1 -3.524e+00
  2 -5.131e+00
  3 -5.571e+00
  4 -7.526e+00
  5 -1.025e+01
  6 -1.728e+01
  7 -2.097e+01
  8 -2.147e+01
  9 -2.425e+01
    ...


--------------------------------------------------------------------------------
                    LOCALIZED MOLECULAR ORBITAL COMPOSITIONS
--------------------------------------------------------------------------------

The Mulliken populations for each LMO on each atom are computed
The LMO`s will be ordered according to atom index and type
  (A) Strongly localized MO`s have populations of >=0.950 on one atom
  (B) Two center bond orbitals have populations of >=0.850 on two atoms
  (C) Other MO`s are considered to be `delocalized`

FOUND  -   2 strongly local MO`s
       -   5 two center bond MO`s
       -   0 significantly delocalized MO`s

Rather strongly localized orbitals:
MO   3:   1O  -   1.022518
MO   2:   1O  -   1.023156
Bond-like localized orbitals:
MO   8:   5H  -   0.319107  and   0C  -   0.664404
MO   7:   4H  -   0.320379  and   0C  -   0.662988
MO   6:   3H  -   0.402242  and   1O  -   0.585265
MO   5:   2H  -   0.313049  and   0C  -   0.681604
MO   4:   1O  -   0.653223  and   0C  -   0.331946
Localized MO's were stored in: mol_def.loc

Localizing the core orbitals
------------------------------------------------------------------------------
                           ORCA ORBITAL LOCALIZATION
------------------------------------------------------------------------------

Input orbitals are from                  ... mol_def.loc
Output orbitals are to                   ... mol_def.loc
Max. number of iterations                ... 128
Localizations seeded randomly            ... off
Convergence tolerance                    ... 1.000e-06
Using relative localization threshhold   ... 1.000e-08
Treshold for strong local MOs            ... 9.500e-01
Treshold for bond MOs                    ... 8.500e-01
Operator                                 ... 0
Orbital range for localization           ... 0 to 1
Localization criterion                   ... FOSTER-BOYS (AUGMENTED HESSIAN)
Doing the dipole integrals     ... o.k.
Initial value of the localization sum :  1139.622931
ITERATION   0 : L= 1139.6229327369 DL=  1.54e-06 (AVERGE_DL)=    0.0012424225 
ITERATION   1 : L= 1139.6229327369 DL=  0.00e+00 (AVERGE_DL)=    0.0000000000 
LOCALIZATION SUM CONVERGED

------------------------------------------------------
AUGMENTED HESSIAN OPTIMIZATION OF FOSTER-BOYS ORBITALS
------------------------------------------------------

Spin operator:           0
Orbital window:          0 to 1
Number of iterations:    128
Gradient tolerance:      1.000e-06
Number of pairs:         1
Davidson threshold:      2000
Diagonalization method:  LAPACK
Iter:    0   L: 1139.6229327369   Grad. norm: 1.191244e-16
   *** Likely close to a maximum now. ***
       Augmented Hessian eigenvalues:  4.97e-34 -2.86e+01
Iter:    1   L: 1139.6229327369   Grad. norm: 4.235165e-22
LOCALIZATION HAS CONVERGED.

Eigenvalues of the Hessian:
  0 -2.855e+01


--------------------------------------------------------------------------------
                    LOCALIZED MOLECULAR ORBITAL COMPOSITIONS
--------------------------------------------------------------------------------

The Mulliken populations for each LMO on each atom are computed
The LMO`s will be ordered according to atom index and type
  (A) Strongly localized MO`s have populations of >=0.950 on one atom
  (B) Two center bond orbitals have populations of >=0.850 on two atoms
  (C) Other MO`s are considered to be `delocalized`

FOUND  -   2 strongly local MO`s
       -   0 two center bond MO`s
       -   0 significantly delocalized MO`s

Rather strongly localized orbitals:
MO   1:   1O  -   0.999104
MO   0:   0C  -   1.000034
Localized MO's were stored in: mol_def.loc

Warning: reference  - re-canonicalizations have been set to INT 1 VIRT 1
Warning: internal orbitals are localized - no re-canonicalization of internal orbitals
Warning: UsePNO is turned on - no re-canonicalization of internal and virtual orbitals

--------------------------
CLOSED-SHELL FOCK OPERATOR
--------------------------

Restoring SHARK [2] ... ok
Time needed for Fock operator              ...            1.557 sec
Reference energy                           ...   -115.091367087

--------------
DLPNO SETTINGS (2015 fully linear scaling implementation)
--------------

TCutMKN:           1.000e-03
TCutPAO:           1.000e-03
TCutPNO:           1.000e-07
TCutPNOSingles:    3.000e-09
TCutEN:            9.700e-01
TCutPAOExt:        1.000e-01
TCutPairs:         1.000e-05
TCutPre:           1.000e-07
TCutOSV:           1.000e-06
TCutDOij:          1.000e-05
TCutDO:            5.000e-03
TCutC:             1.000e-04
TCutCPAO:          1.000e-03
TCutCMO:           1.000e-03
TScaleDOMP2PreScr: 2.000e+00
TScaleMKNMP2PreScr:1.000e+01
TScalePNOMP2PreScr:1.000e+00
PAO overlap thresh 1.000e-08
Using PNOs for Singles Fock computation
Use new domains
Use fully linear algorithm
TCutTNO:           1.000e-09
TCutMP2Pairs:      1.000e-06
TCutDOStrong:      2.000e-03
TCutMKNStrong:     1.000e-02
TCutMKNWeak:       1.000e-01
TCutDOWeak:        4.000e-03
NTCutTNO:          1

--------------------------
Mulliken population of the LMOs            ... ok
Performing proximity check                 ... No problems found
Calculating differential overlap integrals ... ok

--------------------------
ELECTRON PAIR PRESCREENING
--------------------------

Dipole-based pair screening          .... used

   TCutDOij = 1.000000e-05
   TCutPre  = 1.000000e-07
   .... Finished loop over pairs
Total time spent in the prescreening                  ...     0.002 sec
sum of pair energies estimated for screened out pairs ...       0.000000000000 Eh
Thresholds for map construction and integral transformation for crude MP2:
   TCutMKN                    ...     1.0e-02
   TCutDO                     ...     1.0e-02
   TCutPairs                  ...     1.0e-05
   TCutPNO_CrudeMP2           ...     1.0e-07
   TCutPNOSingles_CrudeMP2    ...     3.0e-09
--------------------------------
LOCAL RI TRANSFORMATION (IAVPAO)
--------------------------------

Orbital window:       2 to 8
Number of PAOs:     184
Basis functions:    184 (64 shells)
Aux. functions:     396 (112 shells)
Use SHARK:           on

Processing maps (0.0 sec)
Average map sizes:
   Aux shells -> MOs               7.0
   Aux shells -> PAOs            184.0
   MOs        -> AO shells        64.0
   PAOs       -> AO shells        64.0

Calculating integrals (0.2 sec, 3.896 MB)
Sorting integrals (0.0 sec, 3.891 MB)
Total time for the integral transformation: 0.3 sec
--------------------------------
INITIAL GUESS AND PNO GENERATION
--------------------------------

PNO truncation parameters                   .... 
    PAOOverlapThresh   =        1.000e-08

    TCutPairs          =        1.000e-05
    TCutPNO            =        1.000e-07
    TCutPNOSingles     =        3.000e-09
    TCutMP2Pairs       =        1.000e-06
    TCutMKN            =        1.000e-02
    TCutDO             =        1.000e-02

Pair selection                          .... not used
Type of local MP2 treatment                 .... semi-local MP2
Strategy for PNO selection                  .... occupation number selection
Pair density normalization                  .... MP2 norm
Spin component scaling                      .... not used

   .... Finished loop over pairs
Making pair pair interaction lists          ... done

                       ===========================
                         28 OF   28 PAIRS ARE KEPT CCSD PAIRS
                          0 OF   28 PAIRS ARE KEPT MP2 PAIRS FOR (T)
                          0 OF   28 PAIRS ARE SKIPPED
                       ===========================

Total time spent in the initial guess                 ...     0.142 sec
SL-MP2 correlation energy (all non-screened pairs)    ...      -0.424840692771 Eh

Initial PNO correlation energy                        ...      -0.424627217958 Eh
sum of pair energies prescreened and skipped MP2 pairs...       0.000000000000 Eh
sum of pair energies of crude MP2 skipped pairs only  ...       0.000000000000 Eh
sum of MP2 pair energies for pairs that were not kept ...       0.000000000000 Eh
sum of PNO error estimates for the kept pairs         ...      -0.000213474813 Eh
                                                          --------------------
sum of all corrections                                         -0.000213474813
Initial total correlation energy                               -0.424840692771
Thresholds for map construction and integral transformation for fine MP2 and CCSD(T) calculation:
   TCutMKN   ...     1.0e-03
   TCutDO    ...     5.0e-03
   TCutPairs ...     1.0e-05
   TCutCMO   ...     1.0e-03
   TCutCPAO  ...     1.0e-03

Thresholds for map construction and integral transformation for strong Triples:
   TCutMKN   ...     1.0e-02
   TCutDO    ...     1.0e-02
   TCutCMO   ...     1.0e-03
   TCutCPAO  ...     1.0e-03

Thresholds for map construction and integral transformation for weak Triples:
   TCutMKN   ...     1.0e-01
   TCutDO    ...     2.0e-02
   TCutCMO   ...     1.0e-03
   TCutCPAO  ...     1.0e-03

--------------------------------
LOCAL RI TRANSFORMATION (IAVPAO)
--------------------------------

Orbital window:       2 to 8
Number of PAOs:     184
Basis functions:    184 (64 shells)
Aux. functions:     396 (112 shells)
Use SHARK:           on

Processing maps (0.0 sec)
Average map sizes:
   Aux shells -> MOs               7.0
   Aux shells -> PAOs            184.0
   MOs        -> AO shells        64.0
   PAOs       -> AO shells        64.0

Calculating integrals (0.2 sec, 3.896 MB)
Sorting integrals (0.0 sec, 3.891 MB)
Total time for the integral transformation: 0.2 sec
--------------------------------
INITIAL GUESS AND PNO GENERATION
--------------------------------

PNO truncation parameters                   .... 
    ScaleTCutPNO       =        1.000e-02
    PAOOverlapThresh   =        1.000e-08

    TCutPairs          =        1.000e-05
    TCutPNO            =        1.000e-07
    TCutPNOSingles     =        3.000e-09
    TCutMP2Pairs       =        1.000e-06
    TCutMKN            =        1.000e-03
    TCutDO             =        5.000e-03

Pair selection                          .... not used
Type of local MP2 treatment                 .... full local PMP2
Strategy for PNO selection                  .... occupation number selection
Pair density normalization                  .... MP2 norm
Spin component scaling                      .... not used

PASS-1: Formation of initial guess LMP2 amplitudes
Initial amplitudes guess done. Entering LMP2 iteration loop:
   Max. no of iterations          ...  50
   Energy convergence tolerance   ...    1.0e-07
   Residual convergence tolerance ...    5.0e-07
   Fock matrix cutoff             ...    1.0e-05 Eh
   DIIS convergence acceleration parameters:
        Max # vectors in DIIS     ... 7
        Start iteration of DIIS   ... 0
        Levelshift                ... 2.000e-01
        Damping factor 1          ... 5.000e-01
        Damping factor 2          ... 1.000e+00
   L-MP2 PNO cut-off              ...   1.0e-09
   L-MP2 PNO cut-off (core)       ...   1.0e-11
                           *** Turning on DIIS ***
LMP2-Iter=   0:  ELMP2= -0.432510442459  DE=   7.6e-03 RMAX=   4.5e-03
LMP2-Iter=   1:  ELMP2= -0.436604358811  DE=   4.1e-03 RMAX=   2.2e-03
LMP2-Iter=   2:  ELMP2= -0.437230684295  DE=   6.3e-04 RMAX=   3.9e-04
LMP2-Iter=   3:  ELMP2= -0.437306115039  DE=   7.5e-05 RMAX=   1.6e-04
LMP2-Iter=   4:  ELMP2= -0.437310983298  DE=   4.9e-06 RMAX=   1.9e-05
LMP2-Iter=   5:  ELMP2= -0.437310670668  DE=   3.1e-07 RMAX=   6.9e-06
LMP2-Iter=   6:  ELMP2= -0.437310608387  DE=   6.2e-08 RMAX=   7.2e-07
LMP2-Iter=   7:  ELMP2= -0.437310605385  DE=   3.0e-09 RMAX=   1.8e-07
LMP2-Iter=   8:  ELMP2= -0.437310610119  DE=   4.7e-09 RMAX=   2.1e-08 => CONVERGED
PASS-2: Formation of Pair natural orbitals
   .... Finished loop over pairs

 PNO Occupation Number Statistics: 
  | Av. % of trace(Dij) retained        ...  99.943992356770
  | sigma^2 in % of trace(Dij) retained ...   4.15e-03
  | Av. % of trace(Di) retained         ...  99.999706181611
  | sigma^2 in % of trace(Di) retained  ...   6.51e-09
 Distributions of % trace(Dij) recovered:
  |       >= 99.9  ...    19 ( 67.9 % of all pairs)
  |   [99.0, 99.9) ...     9 ( 32.1 % of all pairs)
 Distributions of % trace(Di) recovered :
  |       >= 99.9  ...     7 (100.0 % of all I-pairs )

Making pair pair interaction lists          ... done

                       ===========================
                         28 OF   28 PAIRS ARE KEPT
                       ===========================

Total time spent in the initial guess                 ...     2.353 sec
L-MP2 correlation energy (all non-screened pairs)     ...      -0.437310610119 Eh
L-MP2 PNO error correction                            ...      -0.000002020598 Eh
                                                          --------------------
Initial total L-MP2 energy (non-screened pairs)       ...      -0.437312630717 Eh

Initial PNO correlation energy                        ...      -0.437109170014 Eh
sum of pair energies estimated for screened out pairs ...       0.000000000000 Eh
sum of MP2 pair energies for pairs that were not kept ...       0.000000000000 Eh
sum of PNO error estimates for the kept pairs         ...      -0.000203460702 Eh
                                                          --------------------
sum of all corrections                                         -0.000203460702
Initial total correlation energy                               -0.437312630717
Thresholds for map construction and integral transformation for fine MP2 and CCSD(T) calculation:
   TCutMKN   ...     1.0e-03
   TCutDO    ...     5.0e-03
   TCutPairs ...     1.0e-05
   TCutCMO   ...     1.0e-03
   TCutCPAO  ...     1.0e-03

Time for aux screen maps:            0.000
Time for maps after fine MP2:            0.002

PROBLEM (ORCA/DLPNO): not enough memory for MDCI Iterations
        MemNeeded   455.6 MB > MemAvailable   371.4 MB
        Will have to batch evaluation of 4-external contributions to sigma vector

-----------------------------
LOCAL RI TRANSFORMATION (IJV)
-----------------------------

Orbital window:       2 to 8
Basis functions:    184 (64 shells)
Aux. functions:     396 (112 shells)
Use SHARK:           on

Processing maps (0.0 sec)
Average map sizes:
   Aux shells -> MOs(i)            7.0
   Aux shells -> MOs(j)            7.0
   MOs        -> AO shells        64.0

Calculating integrals (0.2 sec, 0.153 MB)
Sorting integrals (0.0 sec, 0.148 MB)
Total time for the integral transformation: 0.2 sec
--------------------------------
LOCAL RI TRANSFORMATION (VABPAO)
--------------------------------

Number of PAOs:     184
Basis functions:    184 (64 shells)
Aux. functions:     396 (112 shells)
Use SHARK:           on

Processing maps (0.0 sec)
Average map sizes:
   Aux shells -> PAOs            184.0
   PAOs       -> AO shells        64.0

Calculating integrals (0.7 sec, 102.292 MB)
Finished


-------------------------------------
Pair Pair Term precalculation with     
RI-(ij|mn) and (im|jn) transformation  
ON THE FLY                             
-------------------------------------

   IBatch   1 (of   2)              ... done (    2.118 sec)
   IBatch   2 (of   2)              ... done (    1.746 sec)
Total EXT                           ...           3.864 sec

---------------------
RI-PNO TRANSFORMATION
---------------------

Total Number of PNOs                   ...  1752
Average number of PNOs per pair        ...    62
Maximal number of PNOs per pair        ...    73
   #pairs with  1 -  5 PNOs   :    0
   #pairs with  6 - 10 PNOs   :    0
   #pairs with 11 - 15 PNOs   :    0
   #pairs with 16 - 20 PNOs   :    0
   #pairs with 21 - 25 PNOs   :    0
   #pairs with 26 - 30 PNOs   :    0
   #pairs with 31 - 35 PNOs   :    0
   #pairs with 36 - 40 PNOs   :    0
   #pairs with 41 - 45 PNOs   :    0
   #pairs with 46 - 50 PNOs   :    0
   #pairs with 51 - 55 PNOs   :    2
   #pairs with 56 - 60 PNOs   :   11
   #pairs with 61 - 65 PNOs   :    5
   #pairs with 66 - 70 PNOs   :    7
   #pairs with 71 - 75 PNOs   :    3

Generation of (ij|ab)[P] integrals            ... on
Generation of (ia|bc)[P],(ja|bc)[P] integrals ... on
Storage of 3 and 4 external integrals         ... on
Generation of ALL (ka|bc)[P] integrals        ... on
Keep RI integrals in memory                   ... off

Ibatch:  1 (of  1)
Starting 2-4 index PNO integral generation ... done

Timings:
Total PNO integral transformation time     ...          3.493 sec
Size of the 3-external file                ...        54 MB
Size of the 4-external file                ...       450 MB
Size of the IKJL file                      ...         0 MB
Size of the all 3-external file            ...       192 MB
Size of the 1-external file                ...         0 MB

Making pair/pair overlap matrices          ... done (    0.076 sec)
Size of the pair overlap file              ... 22 MB
Redoing the guess amplitudes               ... done (    0.005 sec)

-------------------------
FINAL STARTUP INFORMATION
-------------------------

E(0)                                       ...   -115.091367087
E(L-MP2)                                   ...     -0.437312631
E(L-MP2) including corrections             ...     -0.437312631
Initial E(tot)                             ...   -115.528679718
<T|T>                                      ...      0.105383349
Number of pairs included                   ... 28
Total number of pairs                      ... 28

------------------------------------------------
                  RHF COUPLED CLUSTER ITERATIONS
------------------------------------------------

Number of PNO amplitudes to be optimized   ...       110844
Number of non-PNO amplitudes               ...       857500
Untruncated number of regular amplitudes   ...       857500

Iter       E(tot)           E(Corr)          Delta-E          Residual     Time
  0   -115.516197110     -0.424626562      0.012686068      0.014477056    6.41
                           *** Turning on DIIS ***
  1   -115.532586981     -0.441016433     -0.016389871      0.007108787    5.77
  2   -115.543704088     -0.452133540     -0.011117107      0.002111284    5.48
  3   -115.545817584     -0.454247036     -0.002113496      0.001122151    5.78
  4   -115.546318905     -0.454748357     -0.000501321      0.000344743    6.71
  5   -115.546424213     -0.454853666     -0.000105309      0.000117838    5.55
  6   -115.546445378     -0.454874830     -0.000021164      0.000049529    6.54
  7   -115.546447234     -0.454876686     -0.000001856      0.000020990    5.53
               --- The Coupled-Cluster iterations have converged ---

----------------------
COUPLED CLUSTER ENERGY
----------------------

E(0)                                       ...   -115.091367087
E(CORR)(strong-pairs)                      ...     -0.454876686
E(CORR)(weak-pairs)                        ...     -0.000203461
E(CORR)(corrected)                         ...     -0.455080147
E(TOT)                                     ...   -115.546447234
Singles Norm <S|S>**1/2                    ...      0.035925053  
T1 diagnostic                              ...      0.009601374  

------------------
LARGEST AMPLITUDES
------------------
   6->  9   6->  9       0.036630
   5-> 17   5-> 17       0.035520
   5->  9   5->  9       0.033552
   8->  9   8->  9       0.033433
   7->  9   7->  9       0.033373
   5->  9   5-> 17       0.028409
   5-> 17   5->  9       0.028409
   4->  9   4->  9       0.028051
   6-> 17   6->  9       0.027020
   6->  9   6-> 17       0.027020
   7-> 16   7-> 16       0.026772
   8-> 16   8-> 16       0.025795
   6-> 17   6-> 17       0.023788
   7->  9   7-> 16       0.023034
   7-> 16   7->  9       0.023034
   8->  9   8-> 16       0.022610


-------------------------------------------
DLPNO BASED TRIPLES CORRECTION
-------------------------------------------

Singles multiplier          ...  1.000000
TCutTNO                     ... 1.000e-09
TCutMP2Pairs                ... 1.000e-06
TCutDOStrong                ... 1.000e-02
TCutMKNStrong               ... 1.000e-02
TCutDOWeak                  ... 2.000e-02
TCutMKNWeak                 ... 1.000e-01

Fragment selection                          .... not used
Fock matrix occ-virt block is zero --> Setting DT_in_Triples to false.
Number of Triples that are to be computed   ...        77

 . . . . . . . . .
10% done  
20% done  
30% done  
40% done  
50% done  
60% done  
70% done  
80% done  
90% done               (      7.775 sec)
Triples timings:
Total time for T0               ...     8.034 sec
Total time for Iterative (T)    ...     0.000 sec
Total time of overall (T)       ...     8.034 sec

Triples List generation         ...     0.000 sec
TNO generation                  ...     0.246 sec
Pair density generation         ...     0.001 sec
Look up tables                  ...     0.000 sec
Generating 3-index integrals    ...     3.144 sec
  Make 4-ind.int. from 3-ind.int...     1.993 sec
  Projecting amplitudes (D + S) ...     0.172 sec
  Downprojecting integrals      ...     0.000 sec
  Energy contr. (sum over a,b,c)...     0.486 sec
Fitting ET(->0)                 ...     0.000 sec

Everything after 3-index        ...     4.631 sec

Timing details:
 TNO integrals                  ...     4.972 sec
   Reading 3-index integrals    ...     0.081 sec
   Sorting integrals            ...     1.087 sec
       Sorting integrals 1      ...     0.000 sec
       Sorting integrals 2      ...     0.236 sec
       Sorting integrals 3      ...     0.046 sec
       Sorting integrals 4      ...     0.000 sec
       Sorting integrals 5      ...     0.003 sec
       Sorting integrals 6      ...     0.801 sec
   Calculating local VM**-1/2   ...     0.030 sec
   Orthogonal. integrals        ...     0.074 sec
   Multipl. 3-index integrals   ...     3.700 sec
   All concerning IRIab (w/TNO) ...     1.020 sec

 Calculate W0/W1                ...     1.967 sec
 W 3-ext contribution           ...     1.343 sec
 W 3-int contribution           ...     0.158 sec
 Sorting W                      ...     0.423 sec

 V exchange contribution        ...     0.145 sec

 Timings for Triples without generation
     of 3-index integrals       ...     4.631 sec
       0 weak pairs             ...     4.631 sec
       1 weak pair              ...     0.000 sec
       2 weak pairs             ...     0.000 sec
       3 weak pairs             ...     0.000 sec
  Extra time for extrapolation  ...     0.000 sec

Number of Triples   (0, 1, 2, 3 weak pairs; overall):     77       0       0       0  (    77)
Number of Atoms     (0, 1, 2, 3 weak pairs; overall):    6.0     0.0     0.0     0.0  (     6)
Number of PAOs      (0, 1, 2, 3 weak pairs; overall):  184.0     0.0     0.0     0.0  (   184)
Number of AuxFcns   (0, 1, 2, 3 weak pairs; overall):  338.3     0.0     0.0     0.0  (   396)
Number of TNOs      (0, 1, 2, 3 weak pairs         ):  115.1     0.0     0.0     0.0
Aver. Number of NTNO, Atoms, PAOs, AuxFcns / Triples:     77   115.1     6.0   184.0   338.3

Triples Correction (T)                     ...     -0.015314559
Final correlation energy                   ...     -0.470394706
E(CCSD)                                    ...   -115.546447234
E(CCSD(T))                                 ...   -115.561761793



--------------------------------------------------------------------------------
                                    TIMINGS
--------------------------------------------------------------------------------


Total execution time                   ...       70.435 sec

Localization of occupied MO's          ...        0.544 sec (  0.8%)
Fock Matrix Formation                  ...        1.557 sec (  2.2%)
Global overlap, Fock, MKN matrices     ...        0.270 sec (  0.4%)
Differential overlap integrals         ...        0.223 sec (  0.3%)
Organizing maps                        ...        0.006 sec (  0.0%)
RI 3-index integral generations        ...        1.425 sec (  2.0%)
RI-PNO integral transformation         ...        7.520 sec ( 10.7%)
Initial Guess                          ...        2.553 sec (  3.6%)
DIIS Solver                            ...        0.850 sec (  1.2%)
State Vector Update                    ...        0.004 sec (  0.0%)
Sigma-vector construction              ...       47.620 sec ( 67.6%)
  <D|H|D>(0-ext)                       ...        0.355 sec (  0.7% of sigma)
  <D|H|D>(2-ext Fock)                  ...        0.004 sec (  0.0% of sigma)
  <D|H|D>(2-ext)                       ...        0.940 sec (  2.0% of sigma)
  <D|H|D>(4-ext)                       ...       20.671 sec ( 43.4% of sigma)
  <D|H|D>(4-ext-corr)                  ...       18.085 sec ( 38.0% of sigma)
  CCSD doubles correction              ...        0.089 sec (  0.2% of sigma)
  <S|H|S>                              ...        1.643 sec (  3.5% of sigma)
  <S|H|D>(1-ext)                       ...        0.033 sec (  0.1% of sigma)
  <D|H|S>(1-ext)                       ...        0.001 sec (  0.0% of sigma)
  <S|H|D>(3-ext)                       ...        0.124 sec (  0.3% of sigma)
  Fock-dressing                        ...        1.449 sec (  3.0% of sigma)
  Singles amplitudes                   ...        0.304 sec (  0.6% of sigma)
  (ik|jl)-dressing                     ...        0.554 sec (  1.2% of sigma)
  (ij|ab),(ia|jb)-dressing             ...        0.863 sec (  1.8% of sigma)
  Pair energies                        ...        0.003 sec (  0.0% of sigma)
Total Time for computing (T)           ...        8.064 sec ( 11.4% of ALL)


Maximum memory used throughout the entire MDCI-calculation: 499.3 MB

-------------------------   --------------------
FINAL SINGLE POINT ENERGY      -115.561761792529
-------------------------   --------------------


                            ***************************************
                            *     ORCA property calculations      *
                            ***************************************


  WARNING: The energy has been calculated at the MDCI level but the densities
           used in the property calculations are still SCF densities
           MDCI response densities have not been calculated 
           use %mdci Density linearized end
           or  %mdci Density unrelaxed end
           or  %mdci Density orbopt end

                                    ---------------------
                                    Active property flags
                                    ---------------------
   (+) Dipole Moment


------------------------------------------------------------------------------
                       ORCA ELECTRIC PROPERTIES CALCULATION
------------------------------------------------------------------------------

Dipole Moment Calculation                       ... on
Quadrupole Moment Calculation                   ... off
Polarizability Calculation                      ... off
GBWName                                         ... mol_def.gbw
Electron density                                ... mol_def.scfp
The origin for moment calculation is the CENTER OF MASS  = (-13.077166, -11.812675 -15.962584)

-------------
DIPOLE MOMENT
-------------
                                X             Y             Z
Electronic contribution:      1.72977      -0.25919       0.37205
Nuclear contribution   :     -2.23079       0.58684       0.00323
                        -----------------------------------------
Total Dipole Moment    :     -0.50102       0.32765       0.37529
                        -----------------------------------------
Magnitude (a.u.)       :      0.70655
Magnitude (Debye)      :      1.79591



--------------------
Rotational spectrum 
--------------------
 
Rotational constants in cm-1:     4.279461     0.830455     0.800388 
Rotational constants in MHz : 128295.008539 24896.411732 23995.042361 

 Dipole components along the rotational axes: 
x,y,z [a.u.] :     0.381182     0.594905    -0.002322 
x,y,z [Debye]:     0.968888     1.512127    -0.005902 

 

Timings for individual modules:

Sum of individual times         ...       84.197 sec (=   1.403 min)
GTO integral calculation        ...        1.802 sec (=   0.030 min)   2.1 %
SCF iterations                  ...       11.071 sec (=   0.185 min)  13.1 %
MDCI module                     ...       71.325 sec (=   1.189 min)  84.7 %
                             ****ORCA TERMINATED NORMALLY****
TOTAL RUN TIME: 0 days 0 hours 1 minutes 25 seconds 723 msec
