
                                 *****************
                                 * O   R   C   A *
                                 *****************

                                            #,                                       
                                            ###                                      
                                            ####                                     
                                            #####                                    
                                            ######                                   
                                           ########,                                 
                                     ,,################,,,,,                         
                               ,,#################################,,                 
                          ,,##########################################,,             
                       ,#########################################, ''#####,          
                    ,#############################################,,   '####,        
                  ,##################################################,,,,####,       
                ,###########''''           ''''###############################       
              ,#####''   ,,,,##########,,,,          '''####'''          '####       
            ,##' ,,,,###########################,,,                        '##       
           ' ,,###''''                  '''############,,,                           
         ,,##''                                '''############,,,,        ,,,,,,###''
      ,#''                                            '''#######################'''  
     '                                                          ''''####''''         
             ,#######,   #######,   ,#######,      ##                                
            ,#'     '#,  ##    ##  ,#'     '#,    #''#        ######   ,####,        
            ##       ##  ##   ,#'  ##            #'  '#       #        #'  '#        
            ##       ##  #######   ##           ,######,      #####,   #    #        
            '#,     ,#'  ##    ##  '#,     ,#' ,#      #,         ##   #,  ,#        
             '#######'   ##     ##  '#######'  #'      '#     #####' # '####'        



                  #######################################################
                  #                        -***-                        #
                  #          Department of theory and spectroscopy      #
                  #    Directorship and core code : Frank Neese         #
                  #        Max Planck Institute fuer Kohlenforschung    #
                  #                Kaiser Wilhelm Platz 1               #
                  #                 D-45470 Muelheim/Ruhr               #
                  #                      Germany                        #
                  #                                                     #
                  #                  All rights reserved                #
                  #                        -***-                        #
                  #######################################################


                         Program Version 5.0.2 -  RELEASE  -


 With contributions from (in alphabetic order):
   Daniel Aravena         : Magnetic Suceptibility
   Michael Atanasov       : Ab Initio Ligand Field Theory (pilot matlab implementation)
   Alexander A. Auer      : GIAO ZORA, VPT2 properties, NMR spectrum
   Ute Becker             : Parallelization
   Giovanni Bistoni       : ED, misc. LED, open-shell LED, HFLD
   Martin Brehm           : Molecular dynamics
   Dmytro Bykov           : SCF Hessian
   Vijay G. Chilkuri      : MRCI spin determinant printing, contributions to CSF-ICE
   Dipayan Datta          : RHF DLPNO-CCSD density
   Achintya Kumar Dutta   : EOM-CC, STEOM-CC
   Dmitry Ganyushin       : Spin-Orbit,Spin-Spin,Magnetic field MRCI
   Miquel Garcia          : C-PCM and meta-GGA Hessian, CC/C-PCM, Gaussian charge scheme
   Yang Guo               : DLPNO-NEVPT2, F12-NEVPT2, CIM, IAO-localization
   Andreas Hansen         : Spin unrestricted coupled pair/coupled cluster methods
   Benjamin Helmich-Paris : MC-RPA, TRAH-SCF, COSX integrals
   Lee Huntington         : MR-EOM, pCC
   Robert Izsak           : Overlap fitted RIJCOSX, COSX-SCS-MP3, EOM
   Marcus Kettner         : VPT2
   Christian Kollmar      : KDIIS, OOCD, Brueckner-CCSD(T), CCSD density, CASPT2, CASPT2-K
   Simone Kossmann        : Meta GGA functionals, TD-DFT gradient, OOMP2, MP2 Hessian
   Martin Krupicka        : Initial AUTO-CI
   Lucas Lang             : DCDCAS
   Marvin Lechner         : AUTO-CI (C++ implementation), FIC-MRCC
   Dagmar Lenk            : GEPOL surface, SMD
   Dimitrios Liakos       : Extrapolation schemes; Compound Job, initial MDCI parallelization
   Dimitrios Manganas     : Further ROCIS development; embedding schemes
   Dimitrios Pantazis     : SARC Basis sets
   Anastasios Papadopoulos: AUTO-CI, single reference methods and gradients
   Taras Petrenko         : DFT Hessian,TD-DFT gradient, ASA, ECA, R-Raman, ABS, FL, XAS/XES, NRVS
   Peter Pinski           : DLPNO-MP2, DLPNO-MP2 Gradient
   Christoph Reimann      : Effective Core Potentials
   Marius Retegan         : Local ZFS, SOC
   Christoph Riplinger    : Optimizer, TS searches, QM/MM, DLPNO-CCSD(T), (RO)-DLPNO pert. Triples
   Tobias Risthaus        : Range-separated hybrids, TD-DFT gradient, RPA, STAB
   Michael Roemelt        : Original ROCIS implementation
   Masaaki Saitow         : Open-shell DLPNO-CCSD energy and density
   Barbara Sandhoefer     : DKH picture change effects
   Avijit Sen             : IP-ROCIS
   Kantharuban Sivalingam : CASSCF convergence, NEVPT2, FIC-MRCI
   Bernardo de Souza      : ESD, SOC TD-DFT
   Georgi Stoychev        : AutoAux, RI-MP2 NMR, DLPNO-MP2 response
   Willem Van den Heuvel  : Paramagnetic NMR
   Boris Wezisla          : Elementary symmetry handling
   Frank Wennmohs         : Technical directorship


 We gratefully acknowledge several colleagues who have allowed us to
 interface, adapt or use parts of their codes:
   Stefan Grimme, W. Hujo, H. Kruse, P. Pracht,  : VdW corrections, initial TS optimization,
                  C. Bannwarth, S. Ehlert          DFT functionals, gCP, sTDA/sTD-DF
   Ed Valeev, F. Pavosevic, A. Kumar             : LibInt (2-el integral package), F12 methods
   Garnet Chan, S. Sharma, J. Yang, R. Olivares  : DMRG
   Ulf Ekstrom                                   : XCFun DFT Library
   Mihaly Kallay                                 : mrcc  (arbitrary order and MRCC methods)
   Jiri Pittner, Ondrej Demel                    : Mk-CCSD
   Frank Weinhold                                : gennbo (NPA and NBO analysis)
   Christopher J. Cramer and Donald G. Truhlar   : smd solvation model
   Lars Goerigk                                  : TD-DFT with DH, B97 family of functionals
   V. Asgeirsson, H. Jonsson                     : NEB implementation
   FAccTs GmbH                                   : IRC, NEB, NEB-TS, DLPNO-Multilevel, CI-OPT
                                                   MM, QMMM, 2- and 3-layer-ONIOM, Crystal-QMMM,
                                                   LR-CPCM, SF, NACMEs, symmetry and pop. for TD-DFT,
                                                   nearIR, NL-DFT gradient (VV10), updates on ESD,
                                                   ML-optimized integration grids
   S Lehtola, MJT Oliveira, MAL Marques          : LibXC Library
   Liviu Ungur et al                             : ANISO software


 Your calculation uses the libint2 library for the computation of 2-el integrals
 For citations please refer to: http://libint.valeyev.net

 Your ORCA version has been built with support for libXC version: 5.1.0
 For citations please refer to: https://tddft.org/programs/libxc/

 This ORCA versions uses:
   CBLAS   interface :  Fast vector & matrix operations
   LAPACKE interface :  Fast linear algebra routines
   SCALAPACK package :  Parallel linear algebra routines
   Shared memory     :  Shared parallel matrices
   BLAS/LAPACK       :  OpenBLAS 0.3.15  USE64BITINT DYNAMIC_ARCH NO_AFFINITY Haswell SINGLE_THREADED
        Core in use  :  Haswell
   Copyright (c) 2011-2014, The OpenBLAS Project


Your calculation utilizes the atom-pairwise dispersion correction
with the Becke-Johnson damping scheme (D3BJ)
Cite in your paper:
S.Grimme, S.Ehrlich, L.Goerigk, J Comput Chem, (2011), 32, 1456–1465 
S.Grimme, J.Antony, S.Ehrlich and H.Krieg, J.Chem.Phys., 132, (2010), 154104 
   

Your calculation employs the composite approach B97-3c by Grimme and coworkers.
For the correct reference, please check the publication list of the Grimme group:
http://www.thch.uni-bonn.de/tc/index.php?section=publikationen&subsection=grimme#2017
   

XCFun DFT library Copyright 2009-2010 Ulf Ekstrom and contributors.
See http://admol.org/xcfun for more information.
This is free software; see the source code for copying conditions.
There is ABSOLUTELY NO WARRANTY; not even for MERCHANTABILITY or FITNESS FOR A PARTICULAR PURPOSE.
For details see the documentation.
Scientific users of this library should cite U. Ekstrom, L. Visscher, R. Bast, A. J. Thorvaldsen and K. Ruud;
J.Chem.Theor.Comp. 2010, DOI: 10.1021/ct100117s
XCFun Version 0.99 

================================================================================

----- Orbital basis set information -----
Your calculation utilizes the basis: def2-mTZVP
----- AuxJ basis set information -----
Your calculation utilizes the basis: def2-mTZVP/J
================================================================================
                                        WARNINGS
                       Please study these warnings very carefully!
================================================================================


WARNING: Geometry Optimization
  ===> : Switching off AutoStart
         For restart on a previous wavefunction, please use MOREAD

INFO   : the flag for use of the SHARK integral package has been found!

================================================================================
                                       INPUT FILE
================================================================================
NAME = ch3oh.inp
|  1> !B97-3c
|  2> !tightOPT tightSCF DEFGRID3 freq 
|  3> %pal
|  4> nprocs 6
|  5> end
|  6> *xyz 0 1
|  7> C        -0.04954807103842    0.66470660749032   -0.00000000140752
|  8> O        -0.03892433353388   -0.74160101890422   -0.00000000564427
|  9> H        -1.09534081494088    0.96634015588509    0.00000000216724
| 10> H         0.87358678704300   -1.04891923553173    0.00000000731092
| 11> H         0.43789671809980    1.07369524281741    0.89173309318696
| 12> H         0.43789671437038    1.07369524824312   -0.89173309561333
| 13> *
| 14> 
| 15>                          ****END OF INPUT****
================================================================================

                       *****************************
                       * Geometry Optimization Run *
                       *****************************

Geometry optimization settings:
Update method            Update   .... BFGS
Choice of coordinates    CoordSys .... Z-matrix Internals
Initial Hessian          InHess   .... Almoef's Model

Convergence Tolerances:
Energy Change            TolE     ....  1.0000e-06 Eh
Max. Gradient            TolMAXG  ....  1.0000e-04 Eh/bohr
RMS Gradient             TolRMSG  ....  3.0000e-05 Eh/bohr
Max. Displacement        TolMAXD  ....  1.0000e-03 bohr
RMS Displacement         TolRMSD  ....  6.0000e-04 bohr
Strict Convergence                ....  False
------------------------------------------------------------------------------
                        ORCA OPTIMIZATION COORDINATE SETUP
------------------------------------------------------------------------------

The optimization will be done in new redundant internal coordinates
Making redundant internal coordinates   ...  (new redundants) done
Evaluating the initial hessian          ...  (Almloef) done
Evaluating the coordinates              ...  done
Calculating the B-matrix                .... done
Calculating the G-matrix                .... done
Diagonalizing the G-matrix              .... done
The first mode is                       ....    3
The number of degrees of freedom        ....   12

    -----------------------------------------------------------------
                    Redundant Internal Coordinates


    -----------------------------------------------------------------
         Definition                    Initial Value    Approx d2E/dq
    -----------------------------------------------------------------
      1. B(O   1,C   0)                  1.4063         0.526979   
      2. B(H   2,C   0)                  1.0884         0.362192   
      3. B(H   3,O   1)                  0.9629         0.514501   
      4. B(H   4,C   0)                  1.0955         0.352932   
      5. B(H   5,C   0)                  1.0955         0.352932   
      6. A(O   1,C   0,H   2)          106.5217         0.341613   
      7. A(O   1,C   0,H   4)          111.7139         0.340137   
      8. A(H   2,C   0,H   4)          108.9093         0.290187   
      9. A(O   1,C   0,H   5)          111.7139         0.340137   
     10. A(H   2,C   0,H   5)          108.9093         0.290187   
     11. A(H   4,C   0,H   5)          108.9804         0.289011   
     12. A(C   0,O   1,H   3)          109.0455         0.359315   
     13. D(H   3,O   1,C   0,H   4)    -61.1859         0.022042   
     14. D(H   3,O   1,C   0,H   5)     61.1859         0.022042   
     15. D(H   3,O   1,C   0,H   2)   -180.0000         0.022042   
    -----------------------------------------------------------------

Number of atoms                         .... 6
Number of degrees of freedom            .... 15

         *************************************************************
         *                GEOMETRY OPTIMIZATION CYCLE   1            *
         *************************************************************
---------------------------------
CARTESIAN COORDINATES (ANGSTROEM)
---------------------------------
  C     -0.049548    0.664707   -0.000000
  O     -0.038924   -0.741601   -0.000000
  H     -1.095341    0.966340    0.000000
  H      0.873587   -1.048919    0.000000
  H      0.437897    1.073695    0.891733
  H      0.437897    1.073695   -0.891733

----------------------------
CARTESIAN COORDINATES (A.U.)
----------------------------
  NO LB      ZA    FRAG     MASS         X           Y           Z
   0 C     6.0000    0    12.011   -0.093632    1.256113   -0.000000
   1 O     8.0000    0    15.999   -0.073556   -1.401423   -0.000000
   2 H     1.0000    0     1.008   -2.069894    1.826118    0.000000
   3 H     1.0000    0     1.008    1.650840   -1.982170    0.000000
   4 H     1.0000    0     1.008    0.827505    2.028990    1.685131
   5 H     1.0000    0     1.008    0.827505    2.028990   -1.685131

--------------------------------
INTERNAL COORDINATES (ANGSTROEM)
--------------------------------
 C      0   0   0     0.000000000000     0.00000000     0.00000000
 O      1   0   0     1.406347753528     0.00000000     0.00000000
 H      1   2   0     1.088423291149   106.52174695     0.00000000
 H      2   1   3     0.962871243442   109.04547368   180.00000000
 H      1   2   3     1.095473431115   111.71390451   118.81411014
 H      1   2   3     1.095473431165   111.71390451   241.18588981

---------------------------
INTERNAL COORDINATES (A.U.)
---------------------------
 C      0   0   0     0.000000000000     0.00000000     0.00000000
 O      1   0   0     2.657612103224     0.00000000     0.00000000
 H      1   2   0     2.056821938053   106.52174695     0.00000000
 H      2   1   3     1.819562952334   109.04547368   180.00000000
 H      1   2   3     2.070144771795   111.71390451   118.81411014
 H      1   2   3     2.070144771889   111.71390451   241.18588981

---------------------
BASIS SET INFORMATION
---------------------
There are 3 groups of distinct atoms

 Group   1 Type C   : 11s6p1d contracted to 5s3p1d pattern {62111/411/1}
 Group   2 Type O   : 11s6p2d contracted to 5s3p2d pattern {62111/411/11}
 Group   3 Type H   : 5s contracted to 3s pattern {311}

Atom   0C    basis set group =>   1
Atom   1O    basis set group =>   2
Atom   2H    basis set group =>   3
Atom   3H    basis set group =>   3
Atom   4H    basis set group =>   3
Atom   5H    basis set group =>   3
---------------------------------
AUXILIARY/J BASIS SET INFORMATION
---------------------------------
There are 3 groups of distinct atoms

 Group   1 Type C   : 8s3p3d contracted to 6s3p3d pattern {311111/111/111}
 Group   2 Type O   : 8s3p3d contracted to 6s3p3d pattern {311111/111/111}
 Group   3 Type H   : 5s2p contracted to 3s1p pattern {311/2}

Atom   0C    basis set group =>   1
Atom   1O    basis set group =>   2
Atom   2H    basis set group =>   3
Atom   3H    basis set group =>   3
Atom   4H    basis set group =>   3
Atom   5H    basis set group =>   3


           ************************************************************
           *        Program running with 6 parallel MPI-processes     *
           *              working on a common directory               *
           ************************************************************
------------------------------------------------------------------------------
                           ORCA GTO INTEGRAL CALCULATION
                           -- RI-GTO INTEGRALS CHOSEN --
------------------------------------------------------------------------------
------------------------------------------------------------------------------
                   ___                                                        
                  /   \      - P O W E R E D   B Y -                         
                 /     \                                                     
                 |  |  |   _    _      __       _____    __    __             
                 |  |  |  | |  | |    /  \     |  _  \  |  |  /  |          
                  \  \/   | |  | |   /    \    | | | |  |  | /  /          
                 / \  \   | |__| |  /  /\  \   | |_| |  |  |/  /          
                |  |  |   |  __  | /  /__\  \  |    /   |      \           
                |  |  |   | |  | | |   __   |  |    \   |  |\   \          
                \     /   | |  | | |  |  |  |  | |\  \  |  | \   \       
                 \___/    |_|  |_| |__|  |__|  |_| \__\ |__|  \__/        
                                                                              
                      - O R C A' S   B I G   F R I E N D -                    
                                      &                                       
                       - I N T E G R A L  F E E D E R -                       
                                                                              
 v1 FN, 2020, v2 2021                                                         
------------------------------------------------------------------------------


Reading SHARK input file ch3oh.SHARKINP.tmp ... ok
----------------------
SHARK INTEGRAL PACKAGE
----------------------

Number of atoms                             ...      6
Number of basis functions                   ...     55
Number of shells                            ...     31
Maximum angular momentum                    ...      2
Integral batch strategy                     ... SHARK/LIBINT Hybrid
RI-J (if used) integral strategy            ... SPLIT-RIJ (Revised 2003 algorithm where possible)
Printlevel                                  ...      1
Contraction scheme used                     ... SEGMENTED contraction
Coulomb Range Separation                    ... NOT USED
Exchange Range Separation                   ... NOT USED
Finite Nucleus Model                        ... NOT USED
Auxiliary Coulomb fitting basis             ... AVAILABLE
   # of basis functions in Aux-J            ...     84
   # of shells in Aux-J                     ...     40
   Maximum angular momentum in Aux-J        ...      2
Auxiliary J/K fitting basis                 ... NOT available
Auxiliary Correlation fitting basis         ... NOT available
Auxiliary 'external' fitting basis          ... NOT available
Integral threshold                          ...     2.500000e-11
Primitive cut-off                           ...     2.500000e-12
Primitive pair pre-selection threshold      ...     2.500000e-12

Calculating pre-screening integrals         ... done (  0.0 sec) Dimension = 31
Organizing shell pair data                  ... done (  0.0 sec)
Shell pair information
Total number of shell pairs                 ...       496
Shell pairs after pre-screening             ...       494
Total number of primitive shell pairs       ...      1709
Primitive shell pairs kept                  ...      1478
          la=0 lb=0:    251 shell pairs
          la=1 lb=0:    132 shell pairs
          la=1 lb=1:     21 shell pairs
          la=2 lb=0:     66 shell pairs
          la=2 lb=1:     18 shell pairs
          la=2 lb=2:      6 shell pairs

Calculating one electron integrals          ... done (  0.0 sec)
Calculating RI/J V-Matrix + Cholesky decomp.... done (  0.1 sec)
Calculating Nuclear repulsion               ... done (  0.0 sec) ENN=     40.517453214694 Eh

SHARK setup successfully completed in   0.5 seconds

Maximum memory used throughout the entire GTOINT-calculation: 8.1 MB


           ************************************************************
           *        Program running with 6 parallel MPI-processes     *
           *              working on a common directory               *
           ************************************************************
-------------------------------------------------------------------------------
                                 ORCA SCF
-------------------------------------------------------------------------------

------------
SCF SETTINGS
------------
Hamiltonian:
 Density Functional     Method          .... DFT(GTOs)
 Exchange Functional    Exchange        .... B973C
 Correlation Functional Correlation     .... B973C
 Gradients option       PostSCFGGA      .... off
   Density functional embedding theory  .... OFF
 RI-approximation to the Coulomb term is turned on
   Number of AuxJ basis functions       .... 84


General Settings:
 Integral files         IntName         .... ch3oh
 Hartree-Fock type      HFTyp           .... RHF
 Total Charge           Charge          ....    0
 Multiplicity           Mult            ....    1
 Number of Electrons    NEL             ....   18
 Basis Dimension        Dim             ....   55
 Nuclear Repulsion      ENuc            ....     40.5174532147 Eh

Convergence Acceleration:
 DIIS                   CNVDIIS         .... on
   Start iteration      DIISMaxIt       ....    12
   Startup error        DIISStart       ....  0.200000
   # of expansion vecs  DIISMaxEq       ....     5
   Bias factor          DIISBfac        ....   1.050
   Max. coefficient     DIISMaxC        ....  10.000
 Trust-Rad. Augm. Hess. CNVTRAH         .... auto
   Auto Start mean grad. ratio tolernc. ....  1.125000
   Auto Start start iteration           ....    20
   Auto Start num. interpolation iter.  ....    10
   Max. Number of Micro iterations      ....    16
   Max. Number of Macro iterations      .... Maxiter - #DIIS iter
   Number of Davidson start vectors     ....     2
   Converg. threshold I  (grad. norm)   ....   1.000e-05
   Converg. threshold II (energy diff.) ....   1.000e-08
   Grad. Scal. Fac. for Micro threshold ....   0.100
   Minimum threshold for Micro iter.    ....   0.010
   NR start threshold (gradient norm)   ....   0.001
   Initial trust radius                 ....   0.400
   Minimum AH scaling param. (alpha)    ....   1.000
   Maximum AH scaling param. (alpha)    .... 1000.000
   Orbital update algorithm             .... Taylor
   White noise on init. David. guess    .... on
   Maximum white noise                  ....   0.010
   Quad. conv. algorithm                .... NR
   COSX micro iterations for RIJONX calc.... off
 SOSCF                  CNVSOSCF        .... on
   Start iteration      SOSCFMaxIt      ....   150
   Startup grad/error   SOSCFStart      ....  0.003300
 Level Shifting         CNVShift        .... on
   Level shift para.    LevelShift      ....    0.2500
   Turn off err/grad.   ShiftErr        ....    0.0010
 Zerner damping         CNVZerner       .... off
 Static damping         CNVDamp         .... on
   Fraction old density DampFac         ....    0.7000
   Max. Damping (<1)    DampMax         ....    0.9800
   Min. Damping (>=0)   DampMin         ....    0.0000
   Turn off err/grad.   DampErr         ....    0.1000
 Fernandez-Rico         CNVRico         .... off

SCF Procedure:
 Maximum # iterations   MaxIter         ....   125
 SCF integral mode      SCFMode         .... Direct
   Integral package                     .... SHARK and LIBINT hybrid scheme
 Reset frequency        DirectResetFreq ....    20
 Integral Threshold     Thresh          ....  2.500e-11 Eh
 Primitive CutOff       TCut            ....  2.500e-12 Eh

Convergence Tolerance:
 Convergence Check Mode ConvCheckMode   .... Total+1el-Energy
 Convergence forced     ConvForced      .... 0
 Energy Change          TolE            ....  1.000e-08 Eh
 1-El. energy change                    ....  1.000e-05 Eh
 Orbital Gradient       TolG            ....  1.000e-05
 Orbital Rotation angle TolX            ....  1.000e-05
 DIIS Error             TolErr          ....  5.000e-07


Diagonalization of the overlap matrix:
Smallest eigenvalue                        ... 2.114e-03
Time for diagonalization                   ...    0.030 sec
Threshold for overlap eigenvalues          ... 1.000e-08
Number of eigenvalues below threshold      ... 0
Time for construction of square roots      ...    0.023 sec
Total time needed                          ...    0.055 sec

--------------------------------
INITIAL GUESS: MINIMAL BASIS EHT
--------------------------------
The minimal basis has 14 functions
EHT matrix was diagonalized
Basis set overlap was calculated now projecting the orbitals
Using GuessMode=FMatrix for the initial guess
C*T matrix was formed
Effective Fockian was calculated
Effective Fockian was diagonalized
Initial density was built
                      ------------------
                      INITIAL GUESS DONE
                      ------------------
-------------------
DFT GRID GENERATION
-------------------

General Integration Accuracy     IntAcc      ... 4.959
Radial Grid Type                 RadialGrid  ... OptM3 with GC (2021)
Angular Grid (max. ang.)         AngularGrid ... 6 (Lebedev-590)
Angular grid pruning method      GridPruning ... 4 (adaptive)
Weight generation scheme         WeightScheme... Becke
Basis function cutoff            BFCut       ... 1.0000e-11
Integration weight cutoff        WCut        ... 1.0000e-14
Angular grids for H and He will be reduced by one unit
Partially contracted basis set               ... off
Rotationally invariant grid construction     ... off

Total number of grid points                  ...    65530
Total number of batches                      ...     1028
Average number of points per batch           ...       63
Average number of grid points per atom       ...    10922
Time for grid setup =    0.820 sec

--------------
SCF ITERATIONS
--------------
ITER       Energy         Delta-E        Max-DP      RMS-DP      [F,P]     Damp
               ***  Starting incremental Fock matrix formation  ***
  0   -115.2841931773   0.000000000000 0.15243684  0.00825165  0.4168653 0.7000
  1   -115.4133712242  -0.129178046883 0.09379864  0.00461509  0.3015973 0.7000
  2   -115.4837726842  -0.070401460070 0.05692583  0.00272774  0.2153853 0.7000
                               ***Turning on DIIS***
  3   -115.5354876575  -0.051714973234 0.03658881  0.00187831  0.1516274 0.7000
  4   -115.5719998382  -0.036512180754 0.02585944  0.00137105  0.1058338 0.7000
  5   -115.5974008015  -0.025400963268 0.06036548  0.00326020  0.0739122 0.0000
                      *** Initiating the SOSCF procedure ***
                           *** Shutting down DIIS ***
                      *** Re-Reading the Fockian *** 
                      *** Removing any level shift *** 
ITER      Energy       Delta-E        Grad      Rot      Max-DP    RMS-DP
  6   -115.65675764  -0.0593568370  0.000575  0.000575  0.001534  0.000100
               *** Restarting incremental Fock matrix formation ***
  7   -115.65676073  -0.0000030881  0.000222  0.000397  0.000620  0.000049
  8   -115.65676050   0.0000002249  0.000261  0.000223  0.000293  0.000022
  9   -115.65676150  -0.0000010014  0.000037  0.000038  0.000054  0.000005
 10   -115.65676151  -0.0000000048  0.000026  0.000016  0.000018  0.000002
 11   -115.65676151  -0.0000000057  0.000003  0.000004  0.000007  0.000001
 12   -115.65676151  -0.0000000000  0.000004  0.000002  0.000005  0.000000
                 **** Energy Check signals convergence ****
              ***Rediagonalizing the Fockian in SOSCF/NRSCF***

               *****************************************************
               *                     SUCCESS                       *
               *           SCF CONVERGED AFTER  13 CYCLES          *
               *****************************************************


----------------
TOTAL SCF ENERGY
----------------

Total Energy       :         -115.65676151 Eh           -3147.18048 eV

Components:
Nuclear Repulsion  :           40.51745321 Eh            1102.53595 eV
Electronic Energy  :         -156.17421473 Eh           -4249.71643 eV
One Electron Energy:         -237.44757498 Eh           -6461.27700 eV
Two Electron Energy:           81.27336025 Eh            2211.56057 eV

Virial components:
Potential Energy   :         -230.89806458 Eh           -6283.05576 eV
Kinetic Energy     :          115.24130306 Eh            3135.87528 eV
Virial Ratio       :            2.00360512


DFT components:
N(Alpha)           :        9.000000576455 electrons
N(Beta)            :        9.000000576455 electrons
N(Total)           :       18.000001152910 electrons
E(XC)              :      -15.421998050525 Eh       
DFET-embed. en.    :        0.000000000000 Eh       

---------------
SCF CONVERGENCE
---------------

  Last Energy change         ...   -5.8982e-10  Tolerance :   1.0000e-08
  Last MAX-Density change    ...    1.9340e-06  Tolerance :   1.0000e-07
  Last RMS-Density change    ...    9.4835e-08  Tolerance :   5.0000e-09
  Last Orbital Gradient      ...    1.9629e-07  Tolerance :   1.0000e-05
  Last Orbital Rotation      ...    1.9199e-07  Tolerance :   1.0000e-05

             **** THE GBW FILE WAS UPDATED (ch3oh.gbw) ****
             **** DENSITY ch3oh.scfp WAS UPDATED ****
             **** ENERGY FILE WAS UPDATED (ch3oh.en.tmp) ****
             **** THE GBW FILE WAS UPDATED (ch3oh.gbw) ****
             **** DENSITY ch3oh.scfp WAS UPDATED ****
----------------
ORBITAL ENERGIES
----------------

  NO   OCC          E(Eh)            E(eV) 
   0   2.0000     -18.740565      -509.9567 
   1   2.0000      -9.929128      -270.1853 
   2   2.0000      -0.940286       -25.5865 
   3   2.0000      -0.621293       -16.9062 
   4   2.0000      -0.461953       -12.5704 
   5   2.0000      -0.391236       -10.6461 
   6   2.0000      -0.381286       -10.3753 
   7   2.0000      -0.290355        -7.9010 
   8   2.0000      -0.225134        -6.1262 
   9   0.0000       0.016067         0.4372 
  10   0.0000       0.059985         1.6323 
  11   0.0000       0.104073         2.8320 
  12   0.0000       0.108624         2.9558 
  13   0.0000       0.124859         3.3976 
  14   0.0000       0.188243         5.1224 
  15   0.0000       0.189881         5.1669 
  16   0.0000       0.262750         7.1498 
  17   0.0000       0.314691         8.5632 
  18   0.0000       0.332289         9.0420 
  19   0.0000       0.344910         9.3855 
  20   0.0000       0.388161        10.5624 
  21   0.0000       0.391815        10.6618 
  22   0.0000       0.429222        11.6797 
  23   0.0000       0.441507        12.0140 
  24   0.0000       0.456551        12.4234 
  25   0.0000       0.470541        12.8041 
  26   0.0000       0.524638        14.2761 
  27   0.0000       0.568551        15.4711 
  28   0.0000       0.594674        16.1819 
  29   0.0000       0.772706        21.0264 
  30   0.0000       0.835086        22.7239 
  31   0.0000       1.398801        38.0633 
  32   0.0000       1.434451        39.0334 
  33   0.0000       1.438869        39.1536 
  34   0.0000       1.574030        42.8315 
  35   0.0000       1.608361        43.7657 
  36   0.0000       1.636890        44.5420 
  37   0.0000       1.749464        47.6053 
  38   0.0000       1.750811        47.6420 
  39   0.0000       1.939054        52.7643 
  40   0.0000       2.026164        55.1347 
  41   0.0000       2.050353        55.7929 
  42   0.0000       2.207906        60.0802 
  43   0.0000       2.284724        62.1705 
  44   0.0000       2.307877        62.8005 
  45   0.0000       2.530135        68.8485 
  46   0.0000       2.545065        69.2547 
  47   0.0000       2.595180        70.6184 
  48   0.0000       2.674028        72.7640 
  49   0.0000       2.692662        73.2711 
  50   0.0000       2.871830        78.1465 
  51   0.0000       3.379302        91.9555 
  52   0.0000       3.677418       100.0676 
  53   0.0000      21.692331       590.2783 
  54   0.0000      43.156198      1174.3399 

                    ********************************
                    * MULLIKEN POPULATION ANALYSIS *
                    ********************************

-----------------------
MULLIKEN ATOMIC CHARGES
-----------------------
   0 C :   -0.331931
   1 O :   -0.567732
   2 H :    0.175720
   3 H :    0.417720
   4 H :    0.153112
   5 H :    0.153112
Sum of atomic charges:    0.0000000

--------------------------------
MULLIKEN REDUCED ORBITAL CHARGES
--------------------------------
  0 C s       :     3.270315  s :     3.270315
      pz      :     1.122961  p :     3.002893
      px      :     1.152189
      py      :     0.727743
      dz2     :     0.009052  d :     0.058722
      dxz     :     0.006375
      dyz     :     0.018240
      dx2y2   :     0.014087
      dxy     :     0.010968
  1 O s       :     3.817727  s :     3.817727
      pz      :     1.925404  p :     4.730643
      px      :     1.491826
      py      :     1.313414
      dz2     :     0.006844  d :     0.019362
      dxz     :     0.002488
      dyz     :    -0.002079
      dx2y2   :     0.014092
      dxy     :    -0.001984
  2 H s       :     0.824280  s :     0.824280
  3 H s       :     0.582280  s :     0.582280
  4 H s       :     0.846888  s :     0.846888
  5 H s       :     0.846888  s :     0.846888


                     *******************************
                     * LOEWDIN POPULATION ANALYSIS *
                     *******************************

----------------------
LOEWDIN ATOMIC CHARGES
----------------------
   0 C :   -0.074418
   1 O :   -0.761412
   2 H :    0.175794
   3 H :    0.355651
   4 H :    0.152192
   5 H :    0.152192

-------------------------------
LOEWDIN REDUCED ORBITAL CHARGES
-------------------------------
  0 C s       :     2.916397  s :     2.916397
      pz      :     1.093234  p :     3.045452
      px      :     1.106299
      py      :     0.845918
      dz2     :     0.015838  d :     0.112569
      dxz     :     0.009417
      dyz     :     0.034692
      dx2y2   :     0.030813
      dxy     :     0.021808
  1 O s       :     3.565676  s :     3.565676
      pz      :     1.924400  p :     4.890897
      px      :     1.527272
      py      :     1.439226
      dz2     :     0.031362  d :     0.304839
      dxz     :     0.003767
      dyz     :     0.085117
      dx2y2   :     0.084587
      dxy     :     0.100007
  2 H s       :     0.824206  s :     0.824206
  3 H s       :     0.644349  s :     0.644349
  4 H s       :     0.847808  s :     0.847808
  5 H s       :     0.847808  s :     0.847808


                      *****************************
                      * MAYER POPULATION ANALYSIS *
                      *****************************

  NA   - Mulliken gross atomic population
  ZA   - Total nuclear charge
  QA   - Mulliken gross atomic charge
  VA   - Mayer's total valence
  BVA  - Mayer's bonded valence
  FA   - Mayer's free valence

  ATOM       NA         ZA         QA         VA         BVA        FA
  0 C      6.3319     6.0000    -0.3319     3.8024     3.8024     0.0000
  1 O      8.5677     8.0000    -0.5677     1.6914     1.6914    -0.0000
  2 H      0.8243     1.0000     0.1757     0.9416     0.9416     0.0000
  3 H      0.5823     1.0000     0.4177     0.7896     0.7896     0.0000
  4 H      0.8469     1.0000     0.1531     0.9306     0.9306     0.0000
  5 H      0.8469     1.0000     0.1531     0.9306     0.9306     0.0000

  Mayer bond orders larger than 0.100000
B(  0-C ,  1-O ) :   0.9307 B(  0-C ,  2-H ) :   0.9662 B(  0-C ,  4-H ) :   0.9551 
B(  0-C ,  5-H ) :   0.9551 B(  1-O ,  3-H ) :   0.7882 

-------
TIMINGS
-------

Total SCF time: 0 days 0 hours 0 min 12 sec 

Total time                  ....      12.457 sec
Sum of individual times     ....      11.403 sec  ( 91.5%)

Fock matrix formation       ....       9.779 sec  ( 78.5%)
  Split-RI-J                ....       2.736 sec  ( 28.0% of F)
  XC integration            ....       3.124 sec  ( 31.9% of F)
    Basis function eval.    ....       0.333 sec  ( 10.7% of XC)
    Density eval.           ....       0.216 sec  (  6.9% of XC)
    XC-Functional eval.     ....       0.287 sec  (  9.2% of XC)
    XC-Potential eval.      ....       0.130 sec  (  4.2% of XC)
Diagonalization             ....       0.154 sec  (  1.2%)
Density matrix formation    ....       0.008 sec  (  0.1%)
Population analysis         ....       0.186 sec  (  1.5%)
Initial guess               ....       0.021 sec  (  0.2%)
Orbital Transformation      ....       0.000 sec  (  0.0%)
Orbital Orthonormalization  ....       0.000 sec  (  0.0%)
DIIS solution               ....       0.307 sec  (  2.5%)
SOSCF solution              ....       0.128 sec  (  1.0%)
Grid generation             ....       0.820 sec  (  6.6%)

Maximum memory used throughout the entire SCF-calculation: 14.3 MB


-------------------------------------------------------------------------------
                          DFT DISPERSION CORRECTION                            
                                                                               
                              DFTD3 V3.1  Rev 1                                
                          USING Becke-Johnson damping                          
-------------------------------------------------------------------------------
The B97-3c composite method is recognized
Using three-body term ABC
Active option DFTDOPT                   ...         4   

molecular C6(AA) [au] = 208.713738 


            DFT-D V3
 parameters
 s6 scaling factor         :     1.0000 
 a1 scaling factor         :     0.3700 
 s8 scaling factor         :     1.5000 
 a2 scaling factor         :     4.1000 
 Damping factor alpha9(ATM):    16.0000 
 ad hoc parameters k1-k3   :    16.0000     1.3333    -4.0000 

 Edisp/kcal,au: -2.808309194290  -0.004475325092 
 E6   /kcal   :  -1.546045842 
 E8   /kcal   :  -1.262397230 
 E6(ABC)      :   0.000133878 
 % E8         :  44.952216550 
 % E6(ABC)    :  -0.004767226 

-------------------------   ----------------
Dispersion correction           -0.004475325
-------------------------   ----------------

------------------   -----------------
SRB correction            -0.012014524
------------------   -----------------

-------------------------   --------------------
FINAL SINGLE POINT ENERGY      -115.673251363155
-------------------------   --------------------



           ************************************************************
           *        Program running with 6 parallel MPI-processes     *
           *              working on a common directory               *
           ************************************************************
------------------------------------------------------------------------------
                         ORCA SCF GRADIENT CALCULATION
------------------------------------------------------------------------------

Gradient of the Kohn-Sham DFT energy:
Kohn-Sham wavefunction type      ... RKS
Hartree-Fock exchange scaling    ...    0.000
Number of operators              ...    1
Number of atoms                  ...    6
Basis set dimensions             ...   55
Integral neglect threshold       ... 2.5e-11
Integral primitive cutoff        ... 2.5e-12
SHARK Integral package           ... ON

Nuc. rep. gradient       (SHARK) ... done (  0.0 sec)
HCore & Overlap gradient (SHARK) ... done (  0.2 sec)
RI-J gradient            (SHARK) ... done (  1.2 sec)
Exchange-correlation gradient    ... done
Dispersion correction            ... done
SRB correction                   ... done

------------------
CARTESIAN GRADIENT
------------------

   1   C   :   -0.002653939   -0.003908619   -0.000000001
   2   O   :    0.001543495    0.011576224    0.000000001
   3   H   :   -0.001345956   -0.001495095   -0.000000000
   4   H   :    0.000164709   -0.001375769    0.000000001
   5   H   :    0.001145845   -0.002398371    0.000664664
   6   H   :    0.001145846   -0.002398370   -0.000664664

Difference to translation invariance:
           :    0.0000000000   -0.0000000000    0.0000000000

Difference to rotation invariance:
           :   -0.0000000027   -0.0000000025   -0.0000000677

Norm of the cartesian gradient     ...    0.0134049489
RMS gradient                       ...    0.0031595768
MAX gradient                       ...    0.0115762241

-------
TIMINGS
-------

Total SCF gradient time            ...        2.682 sec

One electron gradient       ....       0.195 sec  (  7.3%)
RI-J Coulomb gradient       ....       1.241 sec  ( 46.3%)
XC gradient                 ....       0.344 sec  ( 12.8%)

Maximum memory used throughout the entire SCFGRAD-calculation: 23.7 MB
------------------------------------------------------------------------------
                         ORCA GEOMETRY RELAXATION STEP
------------------------------------------------------------------------------

Reading the OPT-File                    .... done
Getting information on internals        .... done
Copying old internal coords+grads       .... done
Making the new internal coordinates     .... (new redundants).... done
Validating the new internal coordinates .... (new redundants).... done
Calculating the B-matrix                .... done
Calculating the G,G- and P matrices     .... done
Transforming gradient to internals      .... done
Projecting the internal gradient        .... done
Number of atoms                         ....   6
Number of internal coordinates          ....  15
Current Energy                          ....  -115.673251363 Eh
Current gradient norm                   ....     0.013404949 Eh/bohr
Maximum allowed component of the step   ....  0.300
Current trust radius                    ....  0.300
Evaluating the initial hessian          ....  (Almloef) done
Projecting the Hessian                  .... done
Forming the augmented Hessian           .... done
Diagonalizing the augmented Hessian     .... done
Last element of RFO vector              ....  0.999564985
Lowest eigenvalues of augmented Hessian:
 -0.000346005  0.022042155  0.184427720  0.194148838  0.314686557
Length of the computed step             ....  0.029505913
The final length of the internal step   ....  0.029505913
Converting the step to cartesian space:
 Initial RMS(Int)=    0.0076183940
Transforming coordinates:
 Iter   0:  RMS(Cart)=    0.0086210520 RMS(Int)=    0.0076297736
 Iter   1:  RMS(Cart)=    0.0000365416 RMS(Int)=    0.0000449038
 Iter   2:  RMS(Cart)=    0.0000002286 RMS(Int)=    0.0000002799
 Iter   3:  RMS(Cart)=    0.0000000021 RMS(Int)=    0.0000000019
done
Storing new coordinates                 .... done

                                .--------------------.
          ----------------------|Geometry convergence|-------------------------
          Item                value                   Tolerance       Converged
          ---------------------------------------------------------------------
          RMS gradient        0.0031608422            0.0000300000      NO
          MAX gradient        0.0101872628            0.0001000000      NO
          RMS step            0.0076183940            0.0006000000      NO
          MAX step            0.0193187394            0.0010000000      NO
          ........................................................
          Max(Bonds)      0.0102      Max(Angles)    0.58
          Max(Dihed)        0.24      Max(Improp)    0.00
          ---------------------------------------------------------------------

The optimization has not yet converged - more geometry cycles are needed


    ---------------------------------------------------------------------------
                         Redundant Internal Coordinates
                            (Angstroem and degrees)

        Definition                    Value    dE/dq     Step     New-Value
    ----------------------------------------------------------------------------
     1. B(O   1,C   0)                1.4063 -0.010187  0.0102    1.4166   
     2. B(H   2,C   0)                1.0884  0.000879 -0.0013    1.0871   
     3. B(H   3,O   1)                0.9629  0.000595 -0.0006    0.9623   
     4. B(H   4,C   0)                1.0955  0.000155 -0.0002    1.0952   
     5. B(H   5,C   0)                1.0955  0.000155 -0.0002    1.0952   
     6. A(O   1,C   0,H   2)          106.52 -0.001056    0.15    106.68   
     7. A(O   1,C   0,H   4)          111.71 -0.003070    0.58    112.29   
     8. A(H   2,C   0,H   4)          108.91  0.002616   -0.54    108.37   
     9. A(O   1,C   0,H   5)          111.71 -0.003070    0.58    112.29   
    10. A(H   2,C   0,H   5)          108.91  0.002616   -0.54    108.37   
    11. A(H   4,C   0,H   5)          108.98  0.002182   -0.28    108.70   
    12. A(C   0,O   1,H   3)          109.05  0.002277   -0.36    108.68   
    13. D(H   3,O   1,C   0,H   4)    -61.19  0.000808   -0.24    -61.43   
    14. D(H   3,O   1,C   0,H   5)     61.19 -0.000808    0.24     61.43   
    15. D(H   3,O   1,C   0,H   2)   -180.00  0.000000   -0.00   -180.00   
    ----------------------------------------------------------------------------

         *************************************************************
         *                GEOMETRY OPTIMIZATION CYCLE   2            *
         *************************************************************
---------------------------------
CARTESIAN COORDINATES (ANGSTROEM)
---------------------------------
  C     -0.047609    0.663586    0.000000
  O     -0.039267   -0.752960   -0.000000
  H     -1.090855    0.969385    0.000000
  H      0.874087   -1.055826    0.000000
  H      0.434605    1.081866    0.889979
  H      0.434605    1.081866   -0.889979

----------------------------
CARTESIAN COORDINATES (A.U.)
----------------------------
  NO LB      ZA    FRAG     MASS         X           Y           Z
   0 C     6.0000    0    12.011   -0.089969    1.253996    0.000000
   1 O     8.0000    0    15.999   -0.074204   -1.422889   -0.000000
   2 H     1.0000    0     1.008   -2.061417    1.831873    0.000000
   3 H     1.0000    0     1.008    1.651786   -1.995221    0.000000
   4 H     1.0000    0     1.008    0.821285    2.044430    1.681817
   5 H     1.0000    0     1.008    0.821285    2.044430   -1.681817

--------------------------------
INTERNAL COORDINATES (ANGSTROEM)
--------------------------------
 C      0   0   0     0.000000000000     0.00000000     0.00000000
 O      1   0   0     1.416570790137     0.00000000     0.00000000
 H      1   2   0     1.087140399090   106.67450521     0.00000000
 H      2   1   3     0.962259473885   108.68278298   180.00000085
 H      1   2   3     1.095240526434   112.29078698   118.57206853
 H      1   2   3     1.095240525174   112.29078652   241.42793177

---------------------------
INTERNAL COORDINATES (A.U.)
---------------------------
 C      0   0   0     0.000000000000     0.00000000     0.00000000
 O      1   0   0     2.676930842671     0.00000000     0.00000000
 H      1   2   0     2.054397623401   106.67450521     0.00000000
 H      2   1   3     1.818406875413   108.68278298   180.00000085
 H      1   2   3     2.069704645732   112.29078698   118.57206853
 H      1   2   3     2.069704643352   112.29078652   241.42793177



           ************************************************************
           *        Program running with 6 parallel MPI-processes     *
           *              working on a common directory               *
           ************************************************************
------------------------------------------------------------------------------
                   ___                                                        
                  /   \      - P O W E R E D   B Y -                         
                 /     \                                                     
                 |  |  |   _    _      __       _____    __    __             
                 |  |  |  | |  | |    /  \     |  _  \  |  |  /  |          
                  \  \/   | |  | |   /    \    | | | |  |  | /  /          
                 / \  \   | |__| |  /  /\  \   | |_| |  |  |/  /          
                |  |  |   |  __  | /  /__\  \  |    /   |      \           
                |  |  |   | |  | | |   __   |  |    \   |  |\   \          
                \     /   | |  | | |  |  |  |  | |\  \  |  | \   \       
                 \___/    |_|  |_| |__|  |__|  |_| \__\ |__|  \__/        
                                                                              
                      - O R C A' S   B I G   F R I E N D -                    
                                      &                                       
                       - I N T E G R A L  F E E D E R -                       
                                                                              
 v1 FN, 2020, v2 2021                                                         
------------------------------------------------------------------------------


Reading SHARK input file ch3oh.SHARKINP.tmp ... ok
----------------------
SHARK INTEGRAL PACKAGE
----------------------

Number of atoms                             ...      6
Number of basis functions                   ...     55
Number of shells                            ...     31
Maximum angular momentum                    ...      2
Integral batch strategy                     ... SHARK/LIBINT Hybrid
RI-J (if used) integral strategy            ... SPLIT-RIJ (Revised 2003 algorithm where possible)
Printlevel                                  ...      1
Contraction scheme used                     ... SEGMENTED contraction
Coulomb Range Separation                    ... NOT USED
Exchange Range Separation                   ... NOT USED
Finite Nucleus Model                        ... NOT USED
Auxiliary Coulomb fitting basis             ... AVAILABLE
   # of basis functions in Aux-J            ...     84
   # of shells in Aux-J                     ...     40
   Maximum angular momentum in Aux-J        ...      2
Auxiliary J/K fitting basis                 ... NOT available
Auxiliary Correlation fitting basis         ... NOT available
Auxiliary 'external' fitting basis          ... NOT available
Integral threshold                          ...     2.500000e-11
Primitive cut-off                           ...     2.500000e-12
Primitive pair pre-selection threshold      ...     2.500000e-12

Calculating pre-screening integrals         ... done (  0.0 sec) Dimension = 31
Organizing shell pair data                  ... done (  0.0 sec)
Shell pair information
Total number of shell pairs                 ...       496
Shell pairs after pre-screening             ...       494
Total number of primitive shell pairs       ...      1709
Primitive shell pairs kept                  ...      1477
          la=0 lb=0:    251 shell pairs
          la=1 lb=0:    132 shell pairs
          la=1 lb=1:     21 shell pairs
          la=2 lb=0:     66 shell pairs
          la=2 lb=1:     18 shell pairs
          la=2 lb=2:      6 shell pairs

Calculating one electron integrals          ... done (  0.0 sec)
Calculating RI/J V-Matrix + Cholesky decomp.... done (  0.1 sec)
Calculating Nuclear repulsion               ... done (  0.0 sec) ENN=     40.350331628162 Eh

SHARK setup successfully completed in   0.4 seconds

Maximum memory used throughout the entire GTOINT-calculation: 8.1 MB


           ************************************************************
           *        Program running with 6 parallel MPI-processes     *
           *              working on a common directory               *
           ************************************************************

Diagonalization of the overlap matrix:
Smallest eigenvalue                        ... 2.116e-03
Time for diagonalization                   ...    0.001 sec
Threshold for overlap eigenvalues          ... 1.000e-08
Number of eigenvalues below threshold      ... 0
Time for construction of square roots      ...    0.031 sec
Total time needed                          ...    0.033 sec

-------------------
DFT GRID GENERATION
-------------------

General Integration Accuracy     IntAcc      ... 4.959
Radial Grid Type                 RadialGrid  ... OptM3 with GC (2021)
Angular Grid (max. ang.)         AngularGrid ... 6 (Lebedev-590)
Angular grid pruning method      GridPruning ... 4 (adaptive)
Weight generation scheme         WeightScheme... Becke
Basis function cutoff            BFCut       ... 1.0000e-11
Integration weight cutoff        WCut        ... 1.0000e-14
Angular grids for H and He will be reduced by one unit
Partially contracted basis set               ... off
Rotationally invariant grid construction     ... off

Total number of grid points                  ...    65533
Total number of batches                      ...     1028
Average number of points per batch           ...       63
Average number of grid points per atom       ...    10922
Time for grid setup =    0.792 sec

--------------
SCF ITERATIONS
--------------
ITER       Energy         Delta-E        Max-DP      RMS-DP      [F,P]     Damp
               ***  Starting incremental Fock matrix formation  ***
                      *** Initiating the SOSCF procedure ***
                      *** Re-Reading the Fockian *** 
                      *** Removing any level shift *** 
ITER      Energy       Delta-E        Grad      Rot      Max-DP    RMS-DP
  0   -115.65701132 -115.6570113189  0.001828  0.001828  0.001484  0.000166
               *** Restarting incremental Fock matrix formation ***
  1   -115.65705541  -0.0000440944  0.000243  0.000676  0.000621  0.000071
  2   -115.65705744  -0.0000020292  0.000151  0.000191  0.000330  0.000026
  3   -115.65705757  -0.0000001258  0.000115  0.000112  0.000222  0.000016
  4   -115.65705786  -0.0000002944  0.000036  0.000067  0.000068  0.000005
  5   -115.65705786   0.0000000064  0.000049  0.000046  0.000047  0.000003
  6   -115.65705789  -0.0000000304  0.000007  0.000006  0.000009  0.000001
                 **** Energy Check signals convergence ****
              ***Rediagonalizing the Fockian in SOSCF/NRSCF***

               *****************************************************
               *                     SUCCESS                       *
               *           SCF CONVERGED AFTER   7 CYCLES          *
               *****************************************************

Total Energy       :         -115.65705789 Eh           -3147.18855 eV
  Last Energy change         ...   -4.3619e-10  Tolerance :   1.0000e-08
  Last MAX-Density change    ...    2.8575e-06  Tolerance :   1.0000e-07
             **** THE GBW FILE WAS UPDATED (ch3oh.gbw) ****
             **** DENSITY ch3oh.scfp WAS UPDATED ****
             **** ENERGY FILE WAS UPDATED (ch3oh.en.tmp) ****
             **** THE GBW FILE WAS UPDATED (ch3oh.gbw) ****
             **** DENSITY ch3oh.scfp WAS UPDATED ****
Total SCF time: 0 days 0 hours 0 min 7 sec 

Maximum memory used throughout the entire SCF-calculation: 14.3 MB


-------------------------------------------------------------------------------
                          DFT DISPERSION CORRECTION                            
                                                                               
                              DFTD3 V3.1  Rev 1                                
                          USING Becke-Johnson damping                          
-------------------------------------------------------------------------------
-------------------------   ----------------
Dispersion correction           -0.004469115
-------------------------   ----------------

------------------   -----------------
SRB correction            -0.011944997
------------------   -----------------

-------------------------   --------------------
FINAL SINGLE POINT ENERGY      -115.673471998830
-------------------------   --------------------



           ************************************************************
           *        Program running with 6 parallel MPI-processes     *
           *              working on a common directory               *
           ************************************************************
------------------------------------------------------------------------------
                         ORCA SCF GRADIENT CALCULATION
------------------------------------------------------------------------------

Gradient of the Kohn-Sham DFT energy:
Kohn-Sham wavefunction type      ... RKS
Hartree-Fock exchange scaling    ...    0.000
Number of operators              ...    1
Number of atoms                  ...    6
Basis set dimensions             ...   55
Integral neglect threshold       ... 2.5e-11
Integral primitive cutoff        ... 2.5e-12
SHARK Integral package           ... ON

Nuc. rep. gradient       (SHARK) ... done (  0.0 sec)
HCore & Overlap gradient (SHARK) ... done (  0.0 sec)
RI-J gradient            (SHARK) ... done (  0.3 sec)
Exchange-correlation gradient    ... done
Dispersion correction            ... done
SRB correction                   ... done

------------------
CARTESIAN GRADIENT
------------------

   1   C   :   -0.001811498   -0.000738661    0.000000000
   2   O   :    0.001592234    0.003426813   -0.000000002
   3   H   :   -0.000198838   -0.000503965    0.000000000
   4   H   :   -0.000558242   -0.001023516    0.000000001
   5   H   :    0.000488173   -0.000580335    0.000310238
   6   H   :    0.000488172   -0.000580336   -0.000310237

Difference to translation invariance:
           :    0.0000000000   -0.0000000000   -0.0000000000

Difference to rotation invariance:
           :    0.0000000005   -0.0000000009   -0.0000012721

Norm of the cartesian gradient     ...    0.0045935646
RMS gradient                       ...    0.0010827136
MAX gradient                       ...    0.0034268130

-------
TIMINGS
-------

Total SCF gradient time            ...        0.874 sec

One electron gradient       ....       0.004 sec  (  0.5%)
RI-J Coulomb gradient       ....       0.253 sec  ( 29.0%)
XC gradient                 ....       0.312 sec  ( 35.7%)

Maximum memory used throughout the entire SCFGRAD-calculation: 23.7 MB
------------------------------------------------------------------------------
                         ORCA GEOMETRY RELAXATION STEP
------------------------------------------------------------------------------

Reading the OPT-File                    .... done
Getting information on internals        .... done
Copying old internal coords+grads       .... done
Making the new internal coordinates     .... (new redundants).... done
Validating the new internal coordinates .... (new redundants).... done
Calculating the B-matrix                .... done
Calculating the G,G- and P matrices     .... done
Transforming gradient to internals      .... done
Projecting the internal gradient        .... done
Number of atoms                         ....   6
Number of internal coordinates          ....  15
Current Energy                          ....  -115.673471999 Eh
Current gradient norm                   ....     0.004593565 Eh/bohr
Maximum allowed component of the step   ....  0.300
Current trust radius                    ....  0.300
Updating the Hessian (BFGS)             .... done
Forming the augmented Hessian           .... done
Diagonalizing the augmented Hessian     .... done
Last element of RFO vector              ....  0.999894217
Lowest eigenvalues of augmented Hessian:
 -0.000051593  0.022042155  0.176381483  0.194148838  0.252245254
Length of the computed step             ....  0.014546445
The final length of the internal step   ....  0.014546445
Converting the step to cartesian space:
 Initial RMS(Int)=    0.0037558759
Transforming coordinates:
 Iter   0:  RMS(Cart)=    0.0032076028 RMS(Int)=    1.6223158157
 Iter   1:  RMS(Cart)=    0.0000119985 RMS(Int)=    0.0000121394
 Iter   2:  RMS(Cart)=    0.0000000476 RMS(Int)=    0.0000000460
done
Storing new coordinates                 .... done

                                .--------------------.
          ----------------------|Geometry convergence|-------------------------
          Item                value                   Tolerance       Converged
          ---------------------------------------------------------------------
          Energy change      -0.0002206357            0.0000010000      NO
          RMS gradient        0.0009474831            0.0000300000      NO
          MAX gradient        0.0023972260            0.0001000000      NO
          RMS step            0.0037558759            0.0006000000      NO
          MAX step            0.0083212270            0.0010000000      NO
          ........................................................
          Max(Bonds)      0.0037      Max(Angles)    0.48
          Max(Dihed)        0.13      Max(Improp)    0.00
          ---------------------------------------------------------------------

The optimization has not yet converged - more geometry cycles are needed


    ---------------------------------------------------------------------------
                         Redundant Internal Coordinates
                            (Angstroem and degrees)

        Definition                    Value    dE/dq     Step     New-Value
    ----------------------------------------------------------------------------
     1. B(O   1,C   0)                1.4166 -0.002397  0.0037    1.4203   
     2. B(H   2,C   0)                1.0871  0.000049 -0.0001    1.0870   
     3. B(H   3,O   1)                0.9623 -0.000208  0.0003    0.9625   
     4. B(H   4,C   0)                1.0952  0.000245 -0.0005    1.0947   
     5. B(H   5,C   0)                1.0952  0.000245 -0.0005    1.0947   
     6. A(O   1,C   0,H   2)          106.67 -0.000299    0.06    106.74   
     7. A(O   1,C   0,H   4)          112.29 -0.000847    0.25    112.54   
     8. A(H   2,C   0,H   4)          108.37  0.000784   -0.25    108.11   
     9. A(O   1,C   0,H   5)          112.29 -0.000847    0.25    112.54   
    10. A(H   2,C   0,H   5)          108.37  0.000784   -0.25    108.11   
    11. A(H   4,C   0,H   5)          108.70  0.000529   -0.08    108.62   
    12. A(C   0,O   1,H   3)          108.68  0.002086   -0.48    108.21   
    13. D(H   3,O   1,C   0,H   4)    -61.43  0.000290   -0.13    -61.56   
    14. D(H   3,O   1,C   0,H   5)     61.43 -0.000290    0.13     61.56   
    15. D(H   3,O   1,C   0,H   2)   -180.00  0.000000   -0.00   -180.00   
    ----------------------------------------------------------------------------

         *************************************************************
         *                GEOMETRY OPTIMIZATION CYCLE   3            *
         *************************************************************
---------------------------------
CARTESIAN COORDINATES (ANGSTROEM)
---------------------------------
  C     -0.046480    0.662286    0.000000
  O     -0.040801   -0.758018    0.000000
  H     -1.088675    0.971122   -0.000000
  H      0.874742   -1.055088   -0.000000
  H      0.433391    1.083808    0.889075
  H      0.433391    1.083808   -0.889075

----------------------------
CARTESIAN COORDINATES (A.U.)
----------------------------
  NO LB      ZA    FRAG     MASS         X           Y           Z
   0 C     6.0000    0    12.011   -0.087835    1.251538    0.000000
   1 O     8.0000    0    15.999   -0.077103   -1.432447    0.000000
   2 H     1.0000    0     1.008   -2.057298    1.835155   -0.000000
   3 H     1.0000    0     1.008    1.653023   -1.993828   -0.000000
   4 H     1.0000    0     1.008    0.818990    2.048100    1.680107
   5 H     1.0000    0     1.008    0.818990    2.048100   -1.680107

--------------------------------
INTERNAL COORDINATES (ANGSTROEM)
--------------------------------
 C      0   0   0     0.000000000000     0.00000000     0.00000000
 O      1   0   0     1.420315089424     0.00000000     0.00000000
 H      1   2   0     1.086991263411   106.73540162     0.00000000
 H      2   1   3     0.962533019472   108.20601176   180.00000000
 H      1   2   3     1.094719631693   112.53791123   118.44147866
 H      1   2   3     1.094719632342   112.53791119   241.55852151

---------------------------
INTERNAL COORDINATES (A.U.)
---------------------------
 C      0   0   0     0.000000000000     0.00000000     0.00000000
 O      1   0   0     2.684006542887     0.00000000     0.00000000
 H      1   2   0     2.054115797812   106.73540162     0.00000000
 H      2   1   3     1.818923801659   108.20601176   180.00000000
 H      1   2   3     2.068720297327   112.53791123   118.44147866
 H      1   2   3     2.068720298554   112.53791119   241.55852151



           ************************************************************
           *        Program running with 6 parallel MPI-processes     *
           *              working on a common directory               *
           ************************************************************
------------------------------------------------------------------------------
                   ___                                                        
                  /   \      - P O W E R E D   B Y -                         
                 /     \                                                     
                 |  |  |   _    _      __       _____    __    __             
                 |  |  |  | |  | |    /  \     |  _  \  |  |  /  |          
                  \  \/   | |  | |   /    \    | | | |  |  | /  /          
                 / \  \   | |__| |  /  /\  \   | |_| |  |  |/  /          
                |  |  |   |  __  | /  /__\  \  |    /   |      \           
                |  |  |   | |  | | |   __   |  |    \   |  |\   \          
                \     /   | |  | | |  |  |  |  | |\  \  |  | \   \       
                 \___/    |_|  |_| |__|  |__|  |_| \__\ |__|  \__/        
                                                                              
                      - O R C A' S   B I G   F R I E N D -                    
                                      &                                       
                       - I N T E G R A L  F E E D E R -                       
                                                                              
 v1 FN, 2020, v2 2021                                                         
------------------------------------------------------------------------------


Reading SHARK input file ch3oh.SHARKINP.tmp ... ok
----------------------
SHARK INTEGRAL PACKAGE
----------------------

Number of atoms                             ...      6
Number of basis functions                   ...     55
Number of shells                            ...     31
Maximum angular momentum                    ...      2
Integral batch strategy                     ... SHARK/LIBINT Hybrid
RI-J (if used) integral strategy            ... SPLIT-RIJ (Revised 2003 algorithm where possible)
Printlevel                                  ...      1
Contraction scheme used                     ... SEGMENTED contraction
Coulomb Range Separation                    ... NOT USED
Exchange Range Separation                   ... NOT USED
Finite Nucleus Model                        ... NOT USED
Auxiliary Coulomb fitting basis             ... AVAILABLE
   # of basis functions in Aux-J            ...     84
   # of shells in Aux-J                     ...     40
   Maximum angular momentum in Aux-J        ...      2
Auxiliary J/K fitting basis                 ... NOT available
Auxiliary Correlation fitting basis         ... NOT available
Auxiliary 'external' fitting basis          ... NOT available
Integral threshold                          ...     2.500000e-11
Primitive cut-off                           ...     2.500000e-12
Primitive pair pre-selection threshold      ...     2.500000e-12

Calculating pre-screening integrals         ... done (  0.0 sec) Dimension = 31
Organizing shell pair data                  ... done (  0.0 sec)
Shell pair information
Total number of shell pairs                 ...       496
Shell pairs after pre-screening             ...       494
Total number of primitive shell pairs       ...      1709
Primitive shell pairs kept                  ...      1477
          la=0 lb=0:    251 shell pairs
          la=1 lb=0:    132 shell pairs
          la=1 lb=1:     21 shell pairs
          la=2 lb=0:     66 shell pairs
          la=2 lb=1:     18 shell pairs
          la=2 lb=2:      6 shell pairs

Calculating one electron integrals          ... done (  0.0 sec)
Calculating RI/J V-Matrix + Cholesky decomp.... done (  0.1 sec)
Calculating Nuclear repulsion               ... done (  0.0 sec) ENN=     40.292668851961 Eh

SHARK setup successfully completed in   0.4 seconds

Maximum memory used throughout the entire GTOINT-calculation: 8.1 MB


           ************************************************************
           *        Program running with 6 parallel MPI-processes     *
           *              working on a common directory               *
           ************************************************************

Diagonalization of the overlap matrix:
Smallest eigenvalue                        ... 2.115e-03
Time for diagonalization                   ...    0.001 sec
Threshold for overlap eigenvalues          ... 1.000e-08
Number of eigenvalues below threshold      ... 0
Time for construction of square roots      ...    0.033 sec
Total time needed                          ...    0.034 sec

-------------------
DFT GRID GENERATION
-------------------

General Integration Accuracy     IntAcc      ... 4.959
Radial Grid Type                 RadialGrid  ... OptM3 with GC (2021)
Angular Grid (max. ang.)         AngularGrid ... 6 (Lebedev-590)
Angular grid pruning method      GridPruning ... 4 (adaptive)
Weight generation scheme         WeightScheme... Becke
Basis function cutoff            BFCut       ... 1.0000e-11
Integration weight cutoff        WCut        ... 1.0000e-14
Angular grids for H and He will be reduced by one unit
Partially contracted basis set               ... off
Rotationally invariant grid construction     ... off

Total number of grid points                  ...    65532
Total number of batches                      ...     1028
Average number of points per batch           ...       63
Average number of grid points per atom       ...    10922
Time for grid setup =    0.807 sec

--------------
SCF ITERATIONS
--------------
ITER       Energy         Delta-E        Max-DP      RMS-DP      [F,P]     Damp
               ***  Starting incremental Fock matrix formation  ***
                      *** Initiating the SOSCF procedure ***
                      *** Re-Reading the Fockian *** 
                      *** Removing any level shift *** 
ITER      Energy       Delta-E        Grad      Rot      Max-DP    RMS-DP
  0   -115.65710182 -115.6571018169  0.000695  0.000695  0.000666  0.000072
               *** Restarting incremental Fock matrix formation ***
  1   -115.65711211  -0.0000102938  0.000127  0.000305  0.000296  0.000033
  2   -115.65711247  -0.0000003619  0.000149  0.000138  0.000224  0.000017
  3   -115.65711258  -0.0000001116  0.000071  0.000126  0.000169  0.000012
  4   -115.65711270  -0.0000001184  0.000007  0.000009  0.000013  0.000001
                  ***Gradient check signals convergence***
              ***Rediagonalizing the Fockian in SOSCF/NRSCF***

               *****************************************************
               *                     SUCCESS                       *
               *           SCF CONVERGED AFTER   5 CYCLES          *
               *****************************************************

Total Energy       :         -115.65711270 Eh           -3147.19004 eV
  Last Energy change         ...   -1.2666e-09  Tolerance :   1.0000e-08
  Last MAX-Density change    ...    3.9182e-06  Tolerance :   1.0000e-07
             **** THE GBW FILE WAS UPDATED (ch3oh.gbw) ****
             **** DENSITY ch3oh.scfp WAS UPDATED ****
             **** ENERGY FILE WAS UPDATED (ch3oh.en.tmp) ****
             **** THE GBW FILE WAS UPDATED (ch3oh.gbw) ****
             **** DENSITY ch3oh.scfp WAS UPDATED ****
Total SCF time: 0 days 0 hours 0 min 6 sec 

Maximum memory used throughout the entire SCF-calculation: 14.3 MB


-------------------------------------------------------------------------------
                          DFT DISPERSION CORRECTION                            
                                                                               
                              DFTD3 V3.1  Rev 1                                
                          USING Becke-Johnson damping                          
-------------------------------------------------------------------------------
-------------------------   ----------------
Dispersion correction           -0.004468025
-------------------------   ----------------

------------------   -----------------
SRB correction            -0.011920483
------------------   -----------------

-------------------------   --------------------
FINAL SINGLE POINT ENERGY      -115.673501212241
-------------------------   --------------------



           ************************************************************
           *        Program running with 6 parallel MPI-processes     *
           *              working on a common directory               *
           ************************************************************
------------------------------------------------------------------------------
                         ORCA SCF GRADIENT CALCULATION
------------------------------------------------------------------------------

Gradient of the Kohn-Sham DFT energy:
Kohn-Sham wavefunction type      ... RKS
Hartree-Fock exchange scaling    ...    0.000
Number of operators              ...    1
Number of atoms                  ...    6
Basis set dimensions             ...   55
Integral neglect threshold       ... 2.5e-11
Integral primitive cutoff        ... 2.5e-12
SHARK Integral package           ... ON

Nuc. rep. gradient       (SHARK) ... done (  0.0 sec)
HCore & Overlap gradient (SHARK) ... done (  0.0 sec)
RI-J gradient            (SHARK) ... done (  0.3 sec)
Exchange-correlation gradient    ... done
Dispersion correction            ... done
SRB correction                   ... done

------------------
CARTESIAN GRADIENT
------------------

   1   C   :   -0.000478430    0.000095810    0.000000001
   2   O   :    0.000552545    0.000355824    0.000000001
   3   H   :    0.000085753   -0.000112091    0.000000000
   4   H   :   -0.000273537   -0.000446112   -0.000000000
   5   H   :    0.000056834    0.000053283   -0.000046877
   6   H   :    0.000056835    0.000053286    0.000046874

Difference to translation invariance:
           :    0.0000000000   -0.0000000000   -0.0000000000

Difference to rotation invariance:
           :   -0.0000000001    0.0000000005   -0.0000006993

Norm of the cartesian gradient     ...    0.0009900918
RMS gradient                       ...    0.0002333669
MAX gradient                       ...    0.0005525450

-------
TIMINGS
-------

Total SCF gradient time            ...        0.892 sec

One electron gradient       ....       0.004 sec  (  0.5%)
RI-J Coulomb gradient       ....       0.285 sec  ( 32.0%)
XC gradient                 ....       0.302 sec  ( 33.8%)

Maximum memory used throughout the entire SCFGRAD-calculation: 23.7 MB
------------------------------------------------------------------------------
                         ORCA GEOMETRY RELAXATION STEP
------------------------------------------------------------------------------

Reading the OPT-File                    .... done
Getting information on internals        .... done
Copying old internal coords+grads       .... done
Making the new internal coordinates     .... (new redundants).... done
Validating the new internal coordinates .... (new redundants).... done
Calculating the B-matrix                .... done
Calculating the G,G- and P matrices     .... done
Transforming gradient to internals      .... done
Projecting the internal gradient        .... done
Number of atoms                         ....   6
Number of internal coordinates          ....  15
Current Energy                          ....  -115.673501212 Eh
Current gradient norm                   ....     0.000990092 Eh/bohr
Maximum allowed component of the step   ....  0.300
Current trust radius                    ....  0.300
Updating the Hessian (BFGS)             .... done
Forming the augmented Hessian           .... done
Diagonalizing the augmented Hessian     .... done
Last element of RFO vector              ....  0.999992656
Lowest eigenvalues of augmented Hessian:
 -0.000003454  0.022042155  0.165885953  0.194148838  0.221597731
Length of the computed step             ....  0.003832583
The final length of the internal step   ....  0.003832583
Converting the step to cartesian space:
 Initial RMS(Int)=    0.0009895686
Transforming coordinates:
 Iter   0:  RMS(Cart)=    0.0011187296 RMS(Int)=    0.0009896104
 Iter   1:  RMS(Cart)=    0.0000017390 RMS(Int)=    0.0000021325
 Iter   2:  RMS(Cart)=    0.0000000045 RMS(Int)=    0.0000000039
done
Storing new coordinates                 .... done

                                .--------------------.
          ----------------------|Geometry convergence|-------------------------
          Item                value                   Tolerance       Converged
          ---------------------------------------------------------------------
          Energy change      -0.0000292134            0.0000010000      NO
          RMS gradient        0.0002496141            0.0000300000      NO
          MAX gradient        0.0009252774            0.0001000000      NO
          RMS step            0.0009895686            0.0006000000      NO
          MAX step            0.0035624040            0.0010000000      NO
          ........................................................
[...]
Dispersion correction           -0.004469131
-------------------------   ----------------

------------------   -----------------
SRB correction            -0.011915398
------------------   -----------------

-------------------------   --------------------
FINAL SINGLE POINT ENERGY      -115.673503920010
-------------------------   --------------------

                                *** OPTIMIZATION RUN DONE ***

                            ***************************************
                            *     ORCA property calculations      *
                            ***************************************

                                    ---------------------
                                    Active property flags
                                    ---------------------
   (+) Dipole Moment


------------------------------------------------------------------------------
                       ORCA ELECTRIC PROPERTIES CALCULATION
------------------------------------------------------------------------------

Dipole Moment Calculation                       ... on
Quadrupole Moment Calculation                   ... off
Polarizability Calculation                      ... off
GBWName                                         ... ch3oh.gbw
Electron density                                ... ch3oh.scfp
The origin for moment calculation is the CENTER OF MASS  = (-0.033502, -0.123494  0.000000)

-------------
DIPOLE MOMENT
-------------
                                X             Y             Z
Electronic contribution:     -0.15986      -1.82848       0.00000
Nuclear contribution   :      0.67962       2.19133      -0.00000
                        -----------------------------------------
Total Dipole Moment    :      0.51976       0.36285      -0.00000
                        -----------------------------------------
Magnitude (a.u.)       :      0.63389
Magnitude (Debye)      :      1.61121



--------------------
Rotational spectrum 
--------------------
 
Rotational constants in cm-1:     4.290718     0.825768     0.796892 
Rotational constants in MHz : 128632.490843 24755.898399 23890.216493 

 Dipole components along the rotational axes: 
x,y,z [a.u.] :     0.332291     0.539808    -0.000000 
x,y,z [Debye]:     0.844617     1.372084    -0.000000 

 


           ************************************************************
           *        Program running with 6 parallel MPI-processes     *
           *              working on a common directory               *
           ************************************************************

-------------------------------------------------------------------------------
                               ORCA SCF HESSIAN
-------------------------------------------------------------------------------

                   --------- SHARK INITIALIZATION DONE ---------

Hessian of the Kohn-Sham DFT energy:
Kohn-Sham wavefunction type                      ... RKS
Hartree-Fock exchange scaling                    ...    0.000
Number of operators                              ...    1
Number of atoms                                  ...    6
Basis set dimensions                             ...   55
Integral neglect threshold                       ... 2.5e-11
Integral primitive cutoff                        ... 2.5e-12

Setting up DFT Hessian calculations              ... 

HESS GRID
---------

General Integration Accuracy     IntAcc      ... 4.959
Radial Grid Type                 RadialGrid  ... OptM3 with GC (2021)
Angular Grid (max. ang.)         AngularGrid ... 7 (Lebedev-770)
Angular grid pruning method      GridPruning ... 4 (adaptive)
Weight generation scheme         WeightScheme... Becke
Basis function cutoff            BFCut       ... 1.0000e-11
Integration weight cutoff        WCut        ... 1.0000e-14
Angular grids for H and He will be reduced by one unit
Partially contracted basis set               ... off
Rotationally invariant grid construction     ... off

Total number of grid points                  ...    95198
Total number of batches                      ...     1491
Average number of points per batch           ...       63
Average number of grid points per atom       ...    15866

Building densities                               ... done   (      0.0 sec)
Calculating rho(r) on the grid                   ... done   (      0.2 sec)
Building xc-kernel on the grid                   ... done   (      0.5 sec)
                                                     done   (      2.6 sec)

Nuclear repulsion Hessian  (SHARK)               ... done   (      0.0 sec)

----------------------------------------------
Forming right-hand sides of CP-SCF equations     ...
----------------------------------------------
One electron integral derivatives  (SHARK)       ... done   (      0.1 sec)
Transforming the overlap derivative matrices     ... done   (      0.0 sec)
Making the Q(x) pseudodensities                  ... done   (      0.0 sec)
Adding the E*S(x)*S(y) terms to the Hessian      ... done   (      0.0 sec)
Calculating energy weighted overlap derivatives  ... done   (      0.2 sec)
Two electron integral derivatives (SHARK-RI)     ... done   (      3.5 sec)
Exchange-correlation integral derivatives        ... done   (      2.2 sec)
tr(F(y)Q(x)) contribution to the Hessian         ... done   (      0.0 sec)
Response fock operator R(S(x)) (SHARK-RI)        ... done   (      0.7 sec)
XC Response fock operator R(S(x))                ... done   (      0.6 sec)
tr(F(y)S(x)) contribution to the Hessian         ... done   (      0.0 sec)
Transforming and finalizing RHSs                 ... done   (      0.0 sec)

----------------------------------------------
Solving the CP-SCF equations (RI)                ...
----------------------------------------------
     CP-SCF ITERATION   0:   3.2738e-01 (   0.4 sec   0/ 18 done)
     CP-SCF ITERATION   1:   3.2966e-02 (   0.4 sec   0/ 18 done)
     CP-SCF ITERATION   2:   8.7104e-03 (   0.3 sec   0/ 18 done)
     CP-SCF ITERATION   3:   1.5212e-03 (   0.3 sec   4/ 18 done)
     CP-SCF ITERATION   4:   2.1835e-04 (   0.3 sec   7/ 18 done)
     CP-SCF ITERATION   5:   3.9255e-05 (   0.3 sec  18/ 18 done)
                    *** THE CP-SCF HAS CONVERGED ***

                                                 ... done   (      2.5 sec)
Forming perturbed density Hessian contributions  ... done   (      0.0 sec)
2nd integral derivative contribs (SHARK-RI)      ... done   (      3.1 sec)
Exchange-correlation Hessian                     ... done   (      2.4 sec)
Dispersion correction in the Hessian             ... done   (      0.3 sec)
SRB correction in the Hessian                    ... done   (      0.0 sec)
Dipole derivatives                               ... (center of mass: -0.033502, -0.123494  0.000000)done   (      0.2 sec)

Total SCF Hessian time: 0 days 0 hours 0 min 19 sec 

Writing the Hessian file to the disk             ... done


Maximum memory used throughout the entire SCFHESS-calculation: 52.6 MB

-----------------------
VIBRATIONAL FREQUENCIES
-----------------------

Scaling factor for frequencies =  1.000000000  (already applied!)

   0:         0.00 cm**-1
   1:         0.00 cm**-1
   2:         0.00 cm**-1
   3:         0.00 cm**-1
   4:         0.00 cm**-1
   5:         0.00 cm**-1
   6:       324.62 cm**-1
   7:      1032.56 cm**-1
   8:      1080.52 cm**-1
   9:      1164.35 cm**-1
  10:      1383.29 cm**-1
  11:      1479.26 cm**-1
  12:      1497.55 cm**-1
  13:      1516.36 cm**-1
  14:      2944.92 cm**-1
  15:      2989.58 cm**-1
  16:      3076.19 cm**-1
  17:      3758.23 cm**-1


------------
NORMAL MODES
------------

These modes are the Cartesian displacements weighted by the diagonal matrix
M(i,i)=1/sqrt(m[i]) where m[i] is the mass of the displaced atom
Thus, these vectors are normalized but *not* orthogonal

                  0          1          2          3          4          5    
      0       0.000000   0.000000   0.000000   0.000000   0.000000   0.000000
      1       0.000000   0.000000   0.000000   0.000000   0.000000   0.000000
      2       0.000000   0.000000   0.000000   0.000000   0.000000   0.000000
      3       0.000000   0.000000   0.000000   0.000000   0.000000   0.000000
      4       0.000000   0.000000   0.000000   0.000000   0.000000   0.000000
      5       0.000000   0.000000   0.000000   0.000000   0.000000   0.000000
      6       0.000000   0.000000   0.000000   0.000000   0.000000   0.000000
      7       0.000000   0.000000   0.000000   0.000000   0.000000   0.000000
      8       0.000000   0.000000   0.000000   0.000000   0.000000   0.000000
      9       0.000000   0.000000   0.000000   0.000000   0.000000   0.000000
     10       0.000000   0.000000   0.000000   0.000000   0.000000   0.000000
     11       0.000000   0.000000   0.000000   0.000000   0.000000   0.000000
     12       0.000000   0.000000   0.000000   0.000000   0.000000   0.000000
     13       0.000000   0.000000   0.000000   0.000000   0.000000   0.000000
     14       0.000000   0.000000   0.000000   0.000000   0.000000   0.000000
     15       0.000000   0.000000   0.000000   0.000000   0.000000   0.000000
     16       0.000000   0.000000   0.000000   0.000000   0.000000   0.000000
     17       0.000000   0.000000   0.000000   0.000000   0.000000   0.000000
                  6          7          8          9         10         11    
      0      -0.000000   0.060468  -0.076669  -0.000000  -0.122465   0.016873
      1       0.000000  -0.356887  -0.104486   0.000000   0.022583  -0.103902
      2      -0.003232  -0.000000  -0.000000  -0.136090   0.000000  -0.000000
      3       0.000000  -0.001864   0.010119   0.000000   0.078650   0.004631
      4      -0.000000   0.340110   0.054063  -0.000000   0.025813  -0.016714
      5       0.063775   0.000000   0.000000   0.061611  -0.000000  -0.000000
      6       0.000000  -0.048753   0.103168   0.000000  -0.020652   0.216494
      7      -0.000000  -0.666630   0.492729   0.000000   0.377542   0.628915
      8      -0.296840   0.000000   0.000000   0.265556  -0.000000   0.000000
      9       0.000000  -0.260341   0.177688   0.000000  -0.201475   0.002091
     10      -0.000000  -0.402833   0.584175  -0.000000  -0.800835  -0.025813
     11      -0.883908  -0.000000  -0.000000  -0.000717   0.000000  -0.000000
     12      -0.225686  -0.190921   0.236054  -0.051066   0.216526  -0.246576
     13       0.040108  -0.038114  -0.344988  -0.644273  -0.127750   0.450119
     14       0.103512   0.018236  -0.047134   0.189436  -0.114761  -0.096776
     15       0.225686  -0.190921   0.236054   0.051066   0.216526  -0.246576
     16      -0.040108  -0.038114  -0.344988   0.644273  -0.127750   0.450119
     17       0.103512  -0.018236   0.047134   0.189436   0.114761   0.096776
                 12         13         14         15         16         17    
      0       0.000000   0.039505  -0.028932   0.000000  -0.088727  -0.002618
      1       0.000000   0.032117  -0.042071  -0.000000   0.012243  -0.001163
      2      -0.060236   0.000000   0.000000  -0.094156  -0.000000  -0.000000
      3       0.000000   0.019759   0.000405  -0.000000   0.001907  -0.058847
      4       0.000000   0.008057  -0.002961  -0.000000   0.000173   0.021208
      5      -0.008168   0.000000   0.000000   0.000461  -0.000000  -0.000000
      6      -0.000000   0.090385  -0.250554  -0.000000   0.930945   0.016327
      7      -0.000000   0.283238   0.068720   0.000000  -0.262830  -0.001911
      8       0.727052  -0.000000   0.000000  -0.028143  -0.000000   0.000000
      9      -0.000000  -0.025938   0.002114   0.000000  -0.018896   0.946893
     10      -0.000000  -0.123550  -0.004774  -0.000000  -0.003736  -0.314927
     11      -0.009040   0.000000  -0.000000   0.004114   0.000000   0.000000
     12      -0.395984  -0.424398   0.293379   0.325891   0.057462   0.001001
     13       0.269856  -0.335130   0.242178   0.254610   0.058970  -0.002957
     14       0.064688   0.392282   0.565868   0.569326   0.145442   0.001282
     15       0.395983  -0.424398   0.293379  -0.325891   0.057462   0.001001
     16      -0.269856  -0.335130   0.242178  -0.254610   0.058970  -0.002957
     17       0.064687  -0.392282  -0.565868   0.569325  -0.145442  -0.001282


-----------
IR SPECTRUM
-----------

 Mode   freq       eps      Int      T**2         TX        TY        TZ
       cm**-1   L/(mol*cm) km/mol    a.u.
----------------------------------------------------------------------------
  6:    324.62   0.021776  110.05  0.020934  (-0.000000 -0.000000 -0.144686)
  7:   1032.56   0.022695  114.69  0.006859  (-0.001596 -0.082803  0.000000)
  8:   1080.52   0.000613    3.10  0.000177  ( 0.006511  0.011608 -0.000000)
  9:   1164.35   0.000027    0.13  0.000007  (-0.000000 -0.000000 -0.002668)
 10:   1383.29   0.004693   23.71  0.001059  (-0.005167 -0.032124  0.000000)
 11:   1479.26   0.000821    4.15  0.000173  (-0.001518 -0.013070  0.000000)
 12:   1497.55   0.000390    1.97  0.000081  ( 0.000000  0.000000  0.009013)
 13:   1516.36   0.000907    4.59  0.000187  (-0.012388  0.005769 -0.000000)
 14:   2944.92   0.015216   76.90  0.001612  (-0.012539 -0.038147  0.000000)
 15:   2989.58   0.015480   78.23  0.001616  (-0.000000 -0.000000 -0.040198)
 16:   3076.19   0.007114   35.95  0.000722  (-0.026423  0.004851 -0.000000)
 17:   3758.23   0.003022   15.27  0.000251  ( 0.010877 -0.011515 -0.000000)

* The epsilon (eps) is given for a Dirac delta lineshape.
** The dipole moment derivative (T) already includes vibrational overlap.

The first frequency considered to be a vibration is 6
The total number of vibrations considered is 12


--------------------------
THERMOCHEMISTRY AT 298.15K
--------------------------

Temperature         ... 298.15 K
Pressure            ... 1.00 atm
Total Mass          ... 32.04 AMU

Throughout the following assumptions are being made:
  (1) The electronic state is orbitally nondegenerate
  (2) There are no thermally accessible electronically excited states
  (3) Hindered rotations indicated by low frequency modes are not
      treated as such but are treated as vibrations and this may
      cause some error
  (4) All equations used are the standard statistical mechanics
      equations for an ideal gas
  (5) All vibrations are strictly harmonic

freq.     324.62  E(vib)   ...       0.24 
freq.    1032.56  E(vib)   ...       0.02 
freq.    1080.52  E(vib)   ...       0.02 
freq.    1164.35  E(vib)   ...       0.01 
freq.    1383.29  E(vib)   ...       0.00 
freq.    1479.26  E(vib)   ...       0.00 
freq.    1497.55  E(vib)   ...       0.00 
freq.    1516.36  E(vib)   ...       0.00 
freq.    2944.92  E(vib)   ...       0.00 
freq.    2989.58  E(vib)   ...       0.00 
freq.    3076.19  E(vib)   ...       0.00 
freq.    3758.23  E(vib)   ...       0.00 

------------
INNER ENERGY
------------

The inner energy is: U= E(el) + E(ZPE) + E(vib) + E(rot) + E(trans)
    E(el)   - is the total energy from the electronic structure calculation
              = E(kin-el) + E(nuc-el) + E(el-el) + E(nuc-nuc)
    E(ZPE)  - the the zero temperature vibrational energy from the frequency calculation
    E(vib)  - the the finite temperature correction to E(ZPE) due to population
              of excited vibrational states
    E(rot)  - is the rotational thermal energy
    E(trans)- is the translational thermal energy

Summary of contributions to the inner energy U:
Electronic energy                ...   -115.67350392 Eh
Zero point energy                ...      0.05068338 Eh      31.80 kcal/mol
Thermal vibrational correction   ...      0.00049191 Eh       0.31 kcal/mol
Thermal rotational correction    ...      0.00141627 Eh       0.89 kcal/mol
Thermal translational correction ...      0.00141627 Eh       0.89 kcal/mol
-----------------------------------------------------------------------
Total thermal energy                   -115.61949608 Eh


Summary of corrections to the electronic energy:
(perhaps to be used in another calculation)
Total thermal correction                  0.00332446 Eh       2.09 kcal/mol
Non-thermal (ZPE) correction              0.05068338 Eh      31.80 kcal/mol
-----------------------------------------------------------------------
Total correction                          0.05400784 Eh      33.89 kcal/mol


--------
ENTHALPY
--------

The enthalpy is H = U + kB*T
                kB is Boltzmann's constant
Total free energy                 ...   -115.61949608 Eh 
Thermal Enthalpy correction       ...      0.00094421 Eh       0.59 kcal/mol
-----------------------------------------------------------------------
Total Enthalpy                    ...   -115.61855187 Eh


Note: Rotational entropy computed according to Herzberg 
Infrared and Raman Spectra, Chapter V,1, Van Nostrand Reinhold, 1945 
Point Group:  Cs, Symmetry Number:   1  
Rotational constants in cm-1:     4.290718     0.825768     0.796892 

Vibrational entropy computed according to the QRRHO of S. Grimme
Chem.Eur.J. 2012 18 9955


-------
ENTROPY
-------

The entropy contributions are T*S = T*(S(el)+S(vib)+S(rot)+S(trans))
     S(el)   - electronic entropy
     S(vib)  - vibrational entropy
     S(rot)  - rotational entropy
     S(trans)- translational entropy
The entropies will be listed as multiplied by the temperature to get
units of energy

Electronic entropy                ...      0.00000000 Eh      0.00 kcal/mol
Vibrational entropy               ...      0.00073309 Eh      0.46 kcal/mol
Rotational entropy                ...      0.00902079 Eh      5.66 kcal/mol
Translational entropy             ...      0.01725935 Eh     10.83 kcal/mol
-----------------------------------------------------------------------
Final entropy term                ...      0.02701323 Eh     16.95 kcal/mol

In case the symmetry of your molecule has not been determined correctly
or in case you have a reason to use a different symmetry number we print 
out the resulting rotational entropy values for sn=1,12 :
 --------------------------------------------------------
|  sn= 1 | S(rot)=       0.00902079 Eh      5.66 kcal/mol|
|  sn= 2 | S(rot)=       0.00836634 Eh      5.25 kcal/mol|
|  sn= 3 | S(rot)=       0.00798350 Eh      5.01 kcal/mol|
|  sn= 4 | S(rot)=       0.00771188 Eh      4.84 kcal/mol|
|  sn= 5 | S(rot)=       0.00750119 Eh      4.71 kcal/mol|
|  sn= 6 | S(rot)=       0.00732905 Eh      4.60 kcal/mol|
|  sn= 7 | S(rot)=       0.00718350 Eh      4.51 kcal/mol|
|  sn= 8 | S(rot)=       0.00705742 Eh      4.43 kcal/mol|
|  sn= 9 | S(rot)=       0.00694621 Eh      4.36 kcal/mol|
|  sn=10 | S(rot)=       0.00684673 Eh      4.30 kcal/mol|
|  sn=11 | S(rot)=       0.00675674 Eh      4.24 kcal/mol|
|  sn=12 | S(rot)=       0.00667459 Eh      4.19 kcal/mol|
 --------------------------------------------------------


-------------------
GIBBS FREE ENERGY
-------------------

The Gibbs free energy is G = H - T*S

Total enthalpy                    ...   -115.61855187 Eh 
Total entropy correction          ...     -0.02701323 Eh    -16.95 kcal/mol
-----------------------------------------------------------------------
Final Gibbs free energy         ...   -115.64556510 Eh

For completeness - the Gibbs free energy minus the electronic energy
G-E(el)                           ...      0.02793882 Eh     17.53 kcal/mol


Timings for individual modules:

Sum of individual times         ...       92.150 sec (=   1.536 min)
GTO integral calculation        ...        7.184 sec (=   0.120 min)   7.8 %
SCF iterations                  ...       51.751 sec (=   0.863 min)  56.2 %
SCF Gradient evaluation         ...        9.868 sec (=   0.164 min)  10.7 %
Geometry relaxation             ...        1.564 sec (=   0.026 min)   1.7 %
Analytical frequency calculation...       21.783 sec (=   0.363 min)  23.6 %
                             ****ORCA TERMINATED NORMALLY****
TOTAL RUN TIME: 0 days 0 hours 1 minutes 41 seconds 902 msec
