
                                 *****************
                                 * O   R   C   A *
                                 *****************

                                            #,                                       
                                            ###                                      
                                            ####                                     
                                            #####                                    
                                            ######                                   
                                           ########,                                 
                                     ,,################,,,,,                         
                               ,,#################################,,                 
                          ,,##########################################,,             
                       ,#########################################, ''#####,          
                    ,#############################################,,   '####,        
                  ,##################################################,,,,####,       
                ,###########''''           ''''###############################       
              ,#####''   ,,,,##########,,,,          '''####'''          '####       
            ,##' ,,,,###########################,,,                        '##       
           ' ,,###''''                  '''############,,,                           
         ,,##''                                '''############,,,,        ,,,,,,###''
      ,#''                                            '''#######################'''  
     '                                                          ''''####''''         
             ,#######,   #######,   ,#######,      ##                                
            ,#'     '#,  ##    ##  ,#'     '#,    #''#        ######   ,####,        
            ##       ##  ##   ,#'  ##            #'  '#       #        #'  '#        
            ##       ##  #######   ##           ,######,      #####,   #    #        
            '#,     ,#'  ##    ##  '#,     ,#' ,#      #,         ##   #,  ,#        
             '#######'   ##     ##  '#######'  #'      '#     #####' # '####'        



                  #######################################################
                  #                        -***-                        #
                  #          Department of theory and spectroscopy      #
                  #    Directorship and core code : Frank Neese         #
                  #        Max Planck Institute fuer Kohlenforschung    #
                  #                Kaiser Wilhelm Platz 1               #
                  #                 D-45470 Muelheim/Ruhr               #
                  #                      Germany                        #
                  #                                                     #
                  #                  All rights reserved                #
                  #                        -***-                        #
                  #######################################################


                         Program Version 5.0.1 -  RELEASE  -


 With contributions from (in alphabetic order):
   Daniel Aravena         : Magnetic Suceptibility
   Michael Atanasov       : Ab Initio Ligand Field Theory (pilot matlab implementation)
   Alexander A. Auer      : GIAO ZORA, VPT2 properties, NMR spectrum
   Ute Becker             : Parallelization
   Giovanni Bistoni       : ED, misc. LED, open-shell LED, HFLD
   Martin Brehm           : Molecular dynamics
   Dmytro Bykov           : SCF Hessian
   Vijay G. Chilkuri      : MRCI spin determinant printing, contributions to CSF-ICE
   Dipayan Datta          : RHF DLPNO-CCSD density
   Achintya Kumar Dutta   : EOM-CC, STEOM-CC
   Dmitry Ganyushin       : Spin-Orbit,Spin-Spin,Magnetic field MRCI
   Miquel Garcia          : C-PCM and meta-GGA Hessian, CC/C-PCM, Gaussian charge scheme
   Yang Guo               : DLPNO-NEVPT2, F12-NEVPT2, CIM, IAO-localization
   Andreas Hansen         : Spin unrestricted coupled pair/coupled cluster methods
   Benjamin Helmich-Paris : MC-RPA, TRAH-SCF, COSX integrals
   Lee Huntington         : MR-EOM, pCC
   Robert Izsak           : Overlap fitted RIJCOSX, COSX-SCS-MP3, EOM
   Marcus Kettner         : VPT2
   Christian Kollmar      : KDIIS, OOCD, Brueckner-CCSD(T), CCSD density, CASPT2, CASPT2-K
   Simone Kossmann        : Meta GGA functionals, TD-DFT gradient, OOMP2, MP2 Hessian
   Martin Krupicka        : Initial AUTO-CI
   Lucas Lang             : DCDCAS
   Marvin Lechner         : AUTO-CI (C++ implementation), FIC-MRCC
   Dagmar Lenk            : GEPOL surface, SMD
   Dimitrios Liakos       : Extrapolation schemes; Compound Job, initial MDCI parallelization
   Dimitrios Manganas     : Further ROCIS development; embedding schemes
   Dimitrios Pantazis     : SARC Basis sets
   Anastasios Papadopoulos: AUTO-CI, single reference methods and gradients
   Taras Petrenko         : DFT Hessian,TD-DFT gradient, ASA, ECA, R-Raman, ABS, FL, XAS/XES, NRVS
   Peter Pinski           : DLPNO-MP2, DLPNO-MP2 Gradient
   Christoph Reimann      : Effective Core Potentials
   Marius Retegan         : Local ZFS, SOC
   Christoph Riplinger    : Optimizer, TS searches, QM/MM, DLPNO-CCSD(T), (RO)-DLPNO pert. Triples
   Tobias Risthaus        : Range-separated hybrids, TD-DFT gradient, RPA, STAB
   Michael Roemelt        : Original ROCIS implementation
   Masaaki Saitow         : Open-shell DLPNO-CCSD energy and density
   Barbara Sandhoefer     : DKH picture change effects
   Avijit Sen             : IP-ROCIS
   Kantharuban Sivalingam : CASSCF convergence, NEVPT2, FIC-MRCI
   Bernardo de Souza      : ESD, SOC TD-DFT
   Georgi Stoychev        : AutoAux, RI-MP2 NMR, DLPNO-MP2 response
   Willem Van den Heuvel  : Paramagnetic NMR
   Boris Wezisla          : Elementary symmetry handling
   Frank Wennmohs         : Technical directorship


 We gratefully acknowledge several colleagues who have allowed us to
 interface, adapt or use parts of their codes:
   Stefan Grimme, W. Hujo, H. Kruse, P. Pracht,  : VdW corrections, initial TS optimization,
                  C. Bannwarth, S. Ehlert          DFT functionals, gCP, sTDA/sTD-DF
   Ed Valeev, F. Pavosevic, A. Kumar             : LibInt (2-el integral package), F12 methods
   Garnet Chan, S. Sharma, J. Yang, R. Olivares  : DMRG
   Ulf Ekstrom                                   : XCFun DFT Library
   Mihaly Kallay                                 : mrcc  (arbitrary order and MRCC methods)
   Jiri Pittner, Ondrej Demel                    : Mk-CCSD
   Frank Weinhold                                : gennbo (NPA and NBO analysis)
   Christopher J. Cramer and Donald G. Truhlar   : smd solvation model
   Lars Goerigk                                  : TD-DFT with DH, B97 family of functionals
   V. Asgeirsson, H. Jonsson                     : NEB implementation
   FAccTs GmbH                                   : IRC, NEB, NEB-TS, DLPNO-Multilevel, CI-OPT
                                                   MM, QMMM, 2- and 3-layer-ONIOM, Crystal-QMMM,
                                                   LR-CPCM, SF, NACMEs, symmetry and pop. for TD-DFT,
                                                   nearIR, NL-DFT gradient (VV10), updates on ESD,
                                                   ML-optimized integration grids
   S Lehtola, MJT Oliveira, MAL Marques          : LibXC Library
   Liviu Ungur et al                             : ANISO software


 Your calculation uses the libint2 library for the computation of 2-el integrals
 For citations please refer to: http://libint.valeyev.net

 Your ORCA version has been built with support for libXC version: 5.1.0
 For citations please refer to: https://tddft.org/programs/libxc/

 This ORCA versions uses:
   CBLAS   interface :  Fast vector & matrix operations
   LAPACKE interface :  Fast linear algebra routines
   SCALAPACK package :  Parallel linear algebra routines
   Shared memory     :  Shared parallel matrices
   BLAS/LAPACK       :  OpenBLAS 0.3.15  USE64BITINT DYNAMIC_ARCH NO_AFFINITY Haswell SINGLE_THREADED
        Core in use  :  Haswell
   Copyright (c) 2011-2014, The OpenBLAS Project


Your calculation utilizes the atom-pairwise dispersion correction
with the Becke-Johnson damping scheme (D3BJ)
Cite in your paper:
S.Grimme, S.Ehrlich, L.Goerigk, J Comput Chem, (2011), 32, 1456–1465 
S.Grimme, J.Antony, S.Ehrlich and H.Krieg, J.Chem.Phys., 132, (2010), 154104 
   

Your calculation employs the composite approach B97-3c by Grimme and coworkers.
For the correct reference, please check the publication list of the Grimme group:
http://www.thch.uni-bonn.de/tc/index.php?section=publikationen&subsection=grimme#2017
   

XCFun DFT library Copyright 2009-2010 Ulf Ekstrom and contributors.
See http://admol.org/xcfun for more information.
This is free software; see the source code for copying conditions.
There is ABSOLUTELY NO WARRANTY; not even for MERCHANTABILITY or FITNESS FOR A PARTICULAR PURPOSE.
For details see the documentation.
Scientific users of this library should cite U. Ekstrom, L. Visscher, R. Bast, A. J. Thorvaldsen and K. Ruud;
J.Chem.Theor.Comp. 2010, DOI: 10.1021/ct100117s
XCFun Version 0.99 

================================================================================

----- Orbital basis set information -----
Your calculation utilizes the basis: def2-mTZVP
----- AuxJ basis set information -----
Your calculation utilizes the basis: def2-mTZVP/J
================================================================================
                                        WARNINGS
                       Please study these warnings very carefully!
================================================================================


WARNING: Geometry Optimization
  ===> : Switching off AutoStart
         For restart on a previous wavefunction, please use MOREAD

INFO   : the flag for use of the SHARK integral package has been found!

================================================================================
                                       INPUT FILE
================================================================================
NAME = h20.inp
|  1> !B97-3c
|  2> !opt freq 
|  3> %pal
|  4> nprocs 1
|  5> end
|  6> *xyz 0 1
|  7> H        -0.51834056273939   -0.31347347662373   -3.19289586567224
|  8> O         0.37659754773774   -0.67801074079271   -3.04506515334007
|  9> H         1.04671633295047   -0.05237740129243   -3.36450074679592
| 10> *
| 11> 
| 12>                          ****END OF INPUT****
================================================================================

                       *****************************
                       * Geometry Optimization Run *
                       *****************************

Geometry optimization settings:
Update method            Update   .... BFGS
Choice of coordinates    CoordSys .... Z-matrix Internals
Initial Hessian          InHess   .... Almoef's Model

Convergence Tolerances:
Energy Change            TolE     ....  5.0000e-06 Eh
Max. Gradient            TolMAXG  ....  3.0000e-04 Eh/bohr
RMS Gradient             TolRMSG  ....  1.0000e-04 Eh/bohr
Max. Displacement        TolMAXD  ....  4.0000e-03 bohr
RMS Displacement         TolRMSD  ....  2.0000e-03 bohr
Strict Convergence                ....  False
------------------------------------------------------------------------------
                        ORCA OPTIMIZATION COORDINATE SETUP
------------------------------------------------------------------------------

The optimization will be done in new redundant internal coordinates
Making redundant internal coordinates   ...  (new redundants) done
Evaluating the initial hessian          ...  (Almloef) done
Evaluating the coordinates              ...  done
Calculating the B-matrix                .... done
Calculating the G-matrix                .... done
Diagonalizing the G-matrix              .... done
The first mode is                       ....    0
The number of degrees of freedom        ....    3

    -----------------------------------------------------------------
                    Redundant Internal Coordinates


    -----------------------------------------------------------------
         Definition                    Initial Value    Approx d2E/dq
    -----------------------------------------------------------------
      1. B(O   1,H   0)                  0.9776         0.487444   
      2. B(H   2,O   1)                  0.9708         0.499671   
      3. A(H   0,O   1,H   2)          109.9889         0.316398   
    -----------------------------------------------------------------

Number of atoms                         .... 3
Number of degrees of freedom            .... 3

         *************************************************************
         *                GEOMETRY OPTIMIZATION CYCLE   1            *
         *************************************************************
---------------------------------
CARTESIAN COORDINATES (ANGSTROEM)
---------------------------------
  H     -0.518341   -0.313473   -3.192896
  O      0.376598   -0.678011   -3.045065
  H      1.046716   -0.052377   -3.364501

----------------------------
CARTESIAN COORDINATES (A.U.)
----------------------------
  NO LB      ZA    FRAG     MASS         X           Y           Z
   0 H     1.0000    0     1.008   -0.979522   -0.592379   -6.033699
   1 O     8.0000    0    15.999    0.711666   -1.281255   -5.754339
   2 H     1.0000    0     1.008    1.978007   -0.098979   -6.357985

--------------------------------
INTERNAL COORDINATES (ANGSTROEM)
--------------------------------
 H      0   0   0     0.000000000000     0.00000000     0.00000000
 O      1   0   0     0.977576369426     0.00000000     0.00000000
 H      2   1   0     0.970832302798   109.98889978     0.00000000

---------------------------
INTERNAL COORDINATES (A.U.)
---------------------------
 H      0   0   0     0.000000000000     0.00000000     0.00000000
 O      1   0   0     1.847351613209     0.00000000     0.00000000
 H      2   1   0     1.834607174252   109.98889978     0.00000000

---------------------
BASIS SET INFORMATION
---------------------
There are 2 groups of distinct atoms

 Group   1 Type H   : 5s contracted to 3s pattern {311}
 Group   2 Type O   : 11s6p2d contracted to 5s3p2d pattern {62111/411/11}

Atom   0H    basis set group =>   1
Atom   1O    basis set group =>   2
Atom   2H    basis set group =>   1
---------------------------------
AUXILIARY/J BASIS SET INFORMATION
---------------------------------
There are 2 groups of distinct atoms

 Group   1 Type H   : 5s2p contracted to 3s1p pattern {311/2}
 Group   2 Type O   : 8s3p3d contracted to 6s3p3d pattern {311111/111/111}

Atom   0H    basis set group =>   1
Atom   1O    basis set group =>   2
Atom   2H    basis set group =>   1
------------------------------------------------------------------------------
                           ORCA GTO INTEGRAL CALCULATION
                           -- RI-GTO INTEGRALS CHOSEN --
------------------------------------------------------------------------------
------------------------------------------------------------------------------
                   ___                                                        
                  /   \      - P O W E R E D   B Y -                         
                 /     \                                                     
                 |  |  |   _    _      __       _____    __    __             
                 |  |  |  | |  | |    /  \     |  _  \  |  |  /  |          
                  \  \/   | |  | |   /    \    | | | |  |  | /  /          
                 / \  \   | |__| |  /  /\  \   | |_| |  |  |/  /          
                |  |  |   |  __  | /  /__\  \  |    /   |      \           
                |  |  |   | |  | | |   __   |  |    \   |  |\   \          
                \     /   | |  | | |  |  |  |  | |\  \  |  | \   \       
                 \___/    |_|  |_| |__|  |__|  |_| \__\ |__|  \__/        
                                                                              
                      - O R C A' S   B I G   F R I E N D -                    
                                      &                                       
                       - I N T E G R A L  F E E D E R -                       
                                                                              
 v1 FN, 2020, v2 2021                                                         
------------------------------------------------------------------------------


Reading SHARK input file h20.SHARKINP.tmp ... ok
----------------------
SHARK INTEGRAL PACKAGE
----------------------

Number of atoms                             ...      3
Number of basis functions                   ...     30
Number of shells                            ...     16
Maximum angular momentum                    ...      2
Integral batch strategy                     ... SHARK/LIBINT Hybrid
RI-J (if used) integral strategy            ... SPLIT-RIJ (Revised 2003 algorithm where possible)
Printlevel                                  ...      1
Contraction scheme used                     ... SEGMENTED contraction
Coulomb Range Separation                    ... NOT USED
Exchange Range Separation                   ... NOT USED
Finite Nucleus Model                        ... NOT USED
Auxiliary Coulomb fitting basis             ... AVAILABLE
   # of basis functions in Aux-J            ...     42
   # of shells in Aux-J                     ...     20
   Maximum angular momentum in Aux-J        ...      2
Auxiliary J/K fitting basis                 ... NOT available
Auxiliary Correlation fitting basis         ... NOT available
Auxiliary 'external' fitting basis          ... NOT available
Integral threshold                          ...     2.500000e-11
Primitive cut-off                           ...     2.500000e-12
Primitive pair pre-selection threshold      ...     2.500000e-12

Calculating pre-screening integrals         ... done (  0.3 sec) Dimension = 16
Organizing shell pair data                  ... done (  0.0 sec)
Shell pair information
Total number of shell pairs                 ...       136
Shell pairs after pre-screening             ...       136
Total number of primitive shell pairs       ...       463
Primitive shell pairs kept                  ...       442
          la=0 lb=0:     66 shell pairs
          la=1 lb=0:     33 shell pairs
          la=1 lb=1:      6 shell pairs
          la=2 lb=0:     22 shell pairs
          la=2 lb=1:      6 shell pairs
          la=2 lb=2:      3 shell pairs

Calculating one electron integrals          ... done (  0.1 sec)
Calculating RI/J V-Matrix + Cholesky decomp.... done (  0.1 sec)
Calculating Nuclear repulsion               ... done (  0.0 sec) ENN=      9.022707510044 Eh

SHARK setup successfully completed in   0.6 seconds

Maximum memory used throughout the entire GTOINT-calculation: 7.5 MB
-------------------------------------------------------------------------------
                                 ORCA SCF
-------------------------------------------------------------------------------

------------
SCF SETTINGS
------------
Hamiltonian:
 Density Functional     Method          .... DFT(GTOs)
 Exchange Functional    Exchange        .... B973C
 Correlation Functional Correlation     .... B973C
 Gradients option       PostSCFGGA      .... off
   Density functional embedding theory  .... OFF
 RI-approximation to the Coulomb term is turned on
   Number of AuxJ basis functions       .... 42


General Settings:
 Integral files         IntName         .... h20
 Hartree-Fock type      HFTyp           .... RHF
 Total Charge           Charge          ....    0
 Multiplicity           Mult            ....    1
 Number of Electrons    NEL             ....   10
 Basis Dimension        Dim             ....   30
 Nuclear Repulsion      ENuc            ....      9.0227075100 Eh

Convergence Acceleration:
 DIIS                   CNVDIIS         .... on
   Start iteration      DIISMaxIt       ....    12
   Startup error        DIISStart       ....  0.200000
   # of expansion vecs  DIISMaxEq       ....     5
   Bias factor          DIISBfac        ....   1.050
   Max. coefficient     DIISMaxC        ....  10.000
 Trust-Rad. Augm. Hess. CNVTRAH         .... auto
   Auto Start mean grad. ratio tolernc. ....  1.125000
   Auto Start start iteration           ....    20
   Auto Start num. interpolation iter.  ....    10
   Max. Number of Micro iterations      ....    16
   Max. Number of Macro iterations      .... Maxiter - #DIIS iter
   Number of Davidson start vectors     ....     2
   Converg. threshold I  (grad. norm)   ....   1.000e-05
   Converg. threshold II (energy diff.) ....   1.000e-08
   Grad. Scal. Fac. for Micro threshold ....   0.100
   Minimum threshold for Micro iter.    ....   0.010
   NR start threshold (gradient norm)   ....   0.001
   Initial trust radius                 ....   0.400
   Minimum AH scaling param. (alpha)    ....   1.000
   Maximum AH scaling param. (alpha)    .... 1000.000
   Orbital update algorithm             .... Taylor
   White noise on init. David. guess    .... on
   Maximum white noise                  ....   0.010
   Quad. conv. algorithm                .... NR
   COSX micro iterations for RIJONX calc.... off
 SOSCF                  CNVSOSCF        .... on
   Start iteration      SOSCFMaxIt      ....   150
   Startup grad/error   SOSCFStart      ....  0.003300
 Level Shifting         CNVShift        .... on
   Level shift para.    LevelShift      ....    0.2500
   Turn off err/grad.   ShiftErr        ....    0.0010
 Zerner damping         CNVZerner       .... off
 Static damping         CNVDamp         .... on
   Fraction old density DampFac         ....    0.7000
   Max. Damping (<1)    DampMax         ....    0.9800
   Min. Damping (>=0)   DampMin         ....    0.0000
   Turn off err/grad.   DampErr         ....    0.1000
 Fernandez-Rico         CNVRico         .... off

SCF Procedure:
 Maximum # iterations   MaxIter         ....   125
 SCF integral mode      SCFMode         .... Direct
   Integral package                     .... SHARK and LIBINT hybrid scheme
 Reset frequency        DirectResetFreq ....    20
 Integral Threshold     Thresh          ....  2.500e-11 Eh
 Primitive CutOff       TCut            ....  2.500e-12 Eh

Convergence Tolerance:
 Convergence Check Mode ConvCheckMode   .... Total+1el-Energy
 Convergence forced     ConvForced      .... 0
 Energy Change          TolE            ....  1.000e-08 Eh
 1-El. energy change                    ....  1.000e-05 Eh
 Orbital Gradient       TolG            ....  1.000e-05
 Orbital Rotation angle TolX            ....  1.000e-05
 DIIS Error             TolErr          ....  5.000e-07


Diagonalization of the overlap matrix:
Smallest eigenvalue                        ... 9.127e-03
Time for diagonalization                   ...    0.210 sec
Threshold for overlap eigenvalues          ... 1.000e-08
Number of eigenvalues below threshold      ... 0
Time for construction of square roots      ...    0.046 sec
Total time needed                          ...    0.256 sec

--------------------------------
INITIAL GUESS: MINIMAL BASIS EHT
--------------------------------
The minimal basis has 7 functions
EHT matrix was diagonalized
Basis set overlap was calculated now projecting the orbitals
Using GuessMode=FMatrix for the initial guess
C*T matrix was formed
Effective Fockian was calculated
Effective Fockian was diagonalized
Initial density was built
                      ------------------
                      INITIAL GUESS DONE
                      ------------------
-------------------
DFT GRID GENERATION
-------------------

General Integration Accuracy     IntAcc      ... 4.388
Radial Grid Type                 RadialGrid  ... OptM3 with GC (2021)
Angular Grid (max. ang.)         AngularGrid ... 4 (Lebedev-302)
Angular grid pruning method      GridPruning ... 4 (adaptive)
Weight generation scheme         WeightScheme... Becke
Basis function cutoff            BFCut       ... 1.0000e-11
Integration weight cutoff        WCut        ... 1.0000e-14
Angular grids for H and He will be reduced by one unit
Partially contracted basis set               ... off
Rotationally invariant grid construction     ... off

Total number of grid points                  ...    13070
Total number of batches                      ...      206
Average number of points per batch           ...       63
Average number of grid points per atom       ...     4357
Time for grid setup =    0.380 sec

--------------
SCF ITERATIONS
--------------
ITER       Energy         Delta-E        Max-DP      RMS-DP      [F,P]     Damp
               ***  Starting incremental Fock matrix formation  ***
  0    -76.1096762331   0.000000000000 0.15410573  0.01329636  0.3395588 0.7000
  1    -76.2048846761  -0.095208442992 0.09410025  0.00738164  0.2174714 0.7000
                               ***Turning on DIIS***
  2    -76.2582586996  -0.053374023498 0.05630876  0.00428318  0.1467106 0.7000
  3    -76.2979623032  -0.039703603570 0.03545483  0.00279021  0.1042328 0.7000
  4    -76.3259668422  -0.028004539036 0.08264257  0.00656283  0.0745163 0.0000
  5    -76.3909334920  -0.064966649795 0.00229397  0.00022662  0.0038908 0.0000
  6    -76.3909389467  -0.000005454669 0.00092642  0.00008655  0.0037335 0.0000
                      *** Initiating the SOSCF procedure ***
                           *** Shutting down DIIS ***
                      *** Re-Reading the Fockian *** 
                      *** Removing any level shift *** 
ITER      Energy       Delta-E        Grad      Rot      Max-DP    RMS-DP
  7    -76.39095002  -0.0000110771  0.000113  0.000113  0.000220  0.000019
               *** Restarting incremental Fock matrix formation ***
  8    -76.39095018  -0.0000001534  0.000031  0.000032  0.000046  0.000005
  9    -76.39095017   0.0000000023  0.000036  0.000021  0.000031  0.000003
 10    -76.39095018  -0.0000000070  0.000011  0.000008  0.000006  0.000001
                 **** Energy Check signals convergence ****
              ***Rediagonalizing the Fockian in SOSCF/NRSCF***

               *****************************************************
               *                     SUCCESS                       *
               *           SCF CONVERGED AFTER  11 CYCLES          *
               *****************************************************


----------------
TOTAL SCF ENERGY
----------------

Total Energy       :          -76.39095018 Eh           -2078.70343 eV

Components:
Nuclear Repulsion  :            9.02270751 Eh             245.52035 eV
Electronic Energy  :          -85.41365769 Eh           -2324.22379 eV
One Electron Energy:         -122.80863902 Eh           -3341.79296 eV
Two Electron Energy:           37.39498133 Eh            1017.56917 eV

Virial components:
Potential Energy   :         -152.46158412 Eh           -4148.69062 eV
Kinetic Energy     :           76.07063393 Eh            2069.98719 eV
Virial Ratio       :            2.00421077


DFT components:
N(Alpha)           :        5.000000874139 electrons
N(Beta)            :        5.000000874139 electrons
N(Total)           :       10.000001748277 electrons
E(XC)              :       -9.264317471248 Eh       
DFET-embed. en.    :        0.000000000000 Eh       

---------------
SCF CONVERGENCE
---------------

  Last Energy change         ...   -2.5116e-10  Tolerance :   1.0000e-08
  Last MAX-Density change    ...    2.6549e-06  Tolerance :   1.0000e-07
  Last RMS-Density change    ...    3.4132e-07  Tolerance :   5.0000e-09
  Last Orbital Gradient      ...    7.8016e-06  Tolerance :   1.0000e-05
  Last Orbital Rotation      ...    2.9561e-06  Tolerance :   1.0000e-05

             **** THE GBW FILE WAS UPDATED (h20.gbw) ****
             **** DENSITY h20.scfp WAS UPDATED ****
             **** ENERGY FILE WAS UPDATED (h20.en.tmp) ****
             **** THE GBW FILE WAS UPDATED (h20.gbw) ****
             **** DENSITY h20.scfp WAS UPDATED ****
----------------
ORBITAL ENERGIES
----------------

  NO   OCC          E(Eh)            E(eV) 
   0   2.0000     -18.743397      -510.0338 
   1   2.0000      -0.921979       -25.0883 
   2   2.0000      -0.488223       -13.2852 
   3   2.0000      -0.325946        -8.8694 
   4   2.0000      -0.254049        -6.9130 
   5   0.0000       0.003668         0.0998 
   6   0.0000       0.076390         2.0787 
   7   0.0000       0.260573         7.0906 
   8   0.0000       0.264923         7.2089 
   9   0.0000       0.326803         8.8928 
  10   0.0000       0.329718         8.9721 
  11   0.0000       0.334705         9.1078 
  12   0.0000       0.419482        11.4147 
  13   0.0000       0.420152        11.4329 
  14   0.0000       0.472438        12.8557 
  15   0.0000       0.517296        14.0763 
  16   0.0000       0.736414        20.0388 
  17   0.0000       0.742651        20.2086 
  18   0.0000       1.866258        50.7835 
  19   0.0000       1.933413        52.6108 
  20   0.0000       2.029048        55.2132 
  21   0.0000       2.029282        55.2196 
  22   0.0000       2.065930        56.2168 
  23   0.0000       2.329594        63.3915 
  24   0.0000       2.440035        66.3967 
  25   0.0000       2.443507        66.4912 
  26   0.0000       2.595025        70.6142 
  27   0.0000       3.218232        87.5725 
  28   0.0000       3.479630        94.6855 
  29   0.0000      42.929626      1168.1745 

                    ********************************
                    * MULLIKEN POPULATION ANALYSIS *
                    ********************************

-----------------------
MULLIKEN ATOMIC CHARGES
-----------------------
   0 H :    0.425534
   1 O :   -0.853962
   2 H :    0.428428
Sum of atomic charges:    0.0000000

--------------------------------
MULLIKEN REDUCED ORBITAL CHARGES
--------------------------------
  0 H s       :     0.574466  s :     0.574466
  1 O s       :     3.874657  s :     3.874657
      pz      :     1.926230  p :     4.947876
      px      :     1.314522
      py      :     1.707125
      dz2     :     0.006093  d :     0.031429
      dxz     :     0.002766
      dyz     :     0.008029
      dx2y2   :     0.002486
      dxy     :     0.012054
  2 H s       :     0.571572  s :     0.571572


                     *******************************
                     * LOEWDIN POPULATION ANALYSIS *
                     *******************************

----------------------
LOEWDIN ATOMIC CHARGES
----------------------
   0 H :    0.360177
   1 O :   -0.719334
   2 H :    0.359157

-------------------------------
LOEWDIN REDUCED ORBITAL CHARGES
-------------------------------
  0 H s       :     0.639823  s :     0.639823
  1 O s       :     3.645572  s :     3.645572
      pz      :     1.932007  p :     5.026367
      px      :     1.362503
      py      :     1.731857
      dz2     :     0.007540  d :     0.047395
      dxz     :     0.004786
      dyz     :     0.008778
      dx2y2   :     0.005054
      dxy     :     0.021238
  2 H s       :     0.640843  s :     0.640843


                      *****************************
                      * MAYER POPULATION ANALYSIS *
                      *****************************

  NA   - Mulliken gross atomic population
  ZA   - Total nuclear charge
  QA   - Mulliken gross atomic charge
  VA   - Mayer's total valence
  BVA  - Mayer's bonded valence
  FA   - Mayer's free valence

  ATOM       NA         ZA         QA         VA         BVA        FA
  0 H      0.5745     1.0000     0.4255     0.7949     0.7949    -0.0000
  1 O      8.8540     8.0000    -0.8540     1.5821     1.5821    -0.0000
  2 H      0.5716     1.0000     0.4284     0.7921     0.7921    -0.0000

  Mayer bond orders larger than 0.100000
B(  0-H ,  1-O ) :   0.7924 B(  1-O ,  2-H ) :   0.7896 

-------
TIMINGS
-------

Total SCF time: 0 days 0 hours 0 min 2 sec 

Total time                  ....       2.661 sec
Sum of individual times     ....       2.170 sec  ( 81.6%)

Fock matrix formation       ....       1.679 sec  ( 63.1%)
  Split-RI-J                ....       0.449 sec  ( 26.7% of F)
  XC integration            ....       0.803 sec  ( 47.8% of F)
    Basis function eval.    ....       0.207 sec  ( 25.8% of XC)
    Density eval.           ....       0.128 sec  ( 15.9% of XC)
    XC-Functional eval.     ....       0.274 sec  ( 34.1% of XC)
    XC-Potential eval.      ....       0.067 sec  (  8.3% of XC)
Diagonalization             ....       0.009 sec  (  0.3%)
Density matrix formation    ....       0.000 sec  (  0.0%)
Population analysis         ....       0.008 sec  (  0.3%)
Initial guess               ....       0.002 sec  (  0.1%)
Orbital Transformation      ....       0.000 sec  (  0.0%)
Orbital Orthonormalization  ....       0.000 sec  (  0.0%)
DIIS solution               ....       0.077 sec  (  2.9%)
SOSCF solution              ....       0.014 sec  (  0.5%)
Grid generation             ....       0.380 sec  ( 14.3%)

Maximum memory used throughout the entire SCF-calculation: 6.1 MB


-------------------------------------------------------------------------------
                          DFT DISPERSION CORRECTION                            
                                                                               
                              DFTD3 V3.1  Rev 1                                
                          USING Becke-Johnson damping                          
-------------------------------------------------------------------------------
The B97-3c composite method is recognized
Using three-body term ABC
Active option DFTDOPT                   ...         4   

molecular C6(AA) [au] = 44.543705 


            DFT-D V3
 parameters
 s6 scaling factor         :     1.0000 
 a1 scaling factor         :     0.3700 
 s8 scaling factor         :     1.5000 
 a2 scaling factor         :     4.1000 
 Damping factor alpha9(ATM):    16.0000 
 ad hoc parameters k1-k3   :    16.0000     1.3333    -4.0000 

 Edisp/kcal,au: -0.530974914059  -0.000846162296 
 E6   /kcal   :  -0.307277816 
 E8   /kcal   :  -0.223697202 
 E6(ABC)      :   0.000000104 
 % E8         :  42.129523696 
 % E6(ABC)    :  -0.000019607 

-------------------------   ----------------
Dispersion correction           -0.000846162
-------------------------   ----------------

------------------   -----------------
SRB correction            -0.005206540
------------------   -----------------

-------------------------   --------------------
FINAL SINGLE POINT ENERGY       -76.397002884244
-------------------------   --------------------

------------------------------------------------------------------------------
                         ORCA SCF GRADIENT CALCULATION
------------------------------------------------------------------------------

Gradient of the Kohn-Sham DFT energy:
Kohn-Sham wavefunction type      ... RKS
Hartree-Fock exchange scaling    ...    0.000
Number of operators              ...    1
Number of atoms                  ...    3
Basis set dimensions             ...   30
Integral neglect threshold       ... 2.5e-11
Integral primitive cutoff        ... 2.5e-12
SHARK Integral package           ... ON

Nuc. rep. gradient       (SHARK) ... done (  0.0 sec)
HCore & Overlap gradient (SHARK) ... done (  0.1 sec)
RI-J gradient            (SHARK) ... done (  1.0 sec)
Exchange-correlation gradient    ... done
Dispersion correction            ... done
SRB correction                   ... done

------------------
CARTESIAN GRADIENT
------------------

   1   H   :   -0.019361961   -0.002237012    0.001648209
   2   O   :    0.004680131    0.002056733   -0.001133101
   3   H   :    0.014681830    0.000180279   -0.000515109

Difference to translation invariance:
           :    0.0000000000   -0.0000000000    0.0000000000

Difference to rotation invariance:
           :    0.0000103047   -0.0000139407   -0.0000084859

Norm of the cartesian gradient     ...    0.0250175538
RMS gradient                       ...    0.0083391846
MAX gradient                       ...    0.0193619608

-------
TIMINGS
-------

Total SCF gradient time            ...        1.803 sec

One electron gradient       ....       0.101 sec  (  5.6%)
RI-J Coulomb gradient       ....       1.042 sec  ( 57.8%)
XC gradient                 ....       0.226 sec  ( 12.5%)

Maximum memory used throughout the entire SCFGRAD-calculation: 24.8 MB
------------------------------------------------------------------------------
                         ORCA GEOMETRY RELAXATION STEP
------------------------------------------------------------------------------

Reading the OPT-File                    .... done
Getting information on internals        .... done
Copying old internal coords+grads       .... done
Making the new internal coordinates     .... (new redundants).... done
Validating the new internal coordinates .... (new redundants).... done
Calculating the B-matrix                .... done
Calculating the G,G- and P matrices     .... done
Transforming gradient to internals      .... done
Projecting the internal gradient        .... done
Number of atoms                         ....   3
Number of internal coordinates          ....   3
Current Energy                          ....   -76.397002884 Eh
Current gradient norm                   ....     0.025017554 Eh/bohr
Maximum allowed component of the step   ....  0.300
Current trust radius                    ....  0.300
Evaluating the initial hessian          ....  (Almloef) done
Projecting the Hessian                  .... done
Forming the augmented Hessian           .... done
Diagonalizing the augmented Hessian     .... done
Last element of RFO vector              ....  0.997435335
Lowest eigenvalues of augmented Hessian:
 -0.001915934  0.317526914  0.488003201
Length of the computed step             ....  0.071757445
The final length of the internal step   ....  0.071757445
Converting the step to cartesian space:
 Initial RMS(Int)=    0.0414291800
Transforming coordinates:
 Iter   0:  RMS(Cart)=    0.0267305987 RMS(Int)=    0.0414906944
 Iter   1:  RMS(Cart)=    0.0003295002 RMS(Int)=    0.0008664006
 Iter   2:  RMS(Cart)=    0.0000131201 RMS(Int)=    0.0000215438
 Iter   3:  RMS(Cart)=    0.0000002894 RMS(Int)=    0.0000006942
 Iter   4:  RMS(Cart)=    0.0000000114 RMS(Int)=    0.0000000227
done
Storing new coordinates                 .... done

                                .--------------------.
          ----------------------|Geometry convergence|-------------------------
          Item                value                   Tolerance       Converged
          ---------------------------------------------------------------------
          RMS gradient        0.0157727239            0.0001000000      NO
          MAX gradient        0.0189955842            0.0003000000      NO
          RMS step            0.0414291800            0.0020000000      NO
          MAX step            0.0596755460            0.0040000000      NO
          ........................................................
          Max(Bonds)      0.0180      Max(Angles)    3.42
          Max(Dihed)        0.00      Max(Improp)    0.00
          ---------------------------------------------------------------------

The optimization has not yet converged - more geometry cycles are needed


    ---------------------------------------------------------------------------
                         Redundant Internal Coordinates
                            (Angstroem and degrees)

        Definition                    Value    dE/dq     Step     New-Value
    ----------------------------------------------------------------------------
     1. B(O   1,H   0)                0.9776  0.016640 -0.0180    0.9596   
     2. B(H   2,O   1)                0.9708  0.010421 -0.0110    0.9598   
     3. A(H   0,O   1,H   2)          109.99  0.018996   -3.42    106.57   
    ----------------------------------------------------------------------------

         *************************************************************
         *                GEOMETRY OPTIMIZATION CYCLE   2            *
         *************************************************************
---------------------------------
CARTESIAN COORDINATES (ANGSTROEM)
---------------------------------
  H     -0.489854   -0.304956   -3.197821
  O      0.376153   -0.687218   -3.040645
  H      1.018674   -0.051687   -3.363996

----------------------------
CARTESIAN COORDINATES (A.U.)
----------------------------
  NO LB      ZA    FRAG     MASS         X           Y           Z
   0 H     1.0000    0     1.008   -0.925690   -0.576284   -6.043007
   1 O     8.0000    0    15.999    0.710827   -1.298654   -5.745986
   2 H     1.0000    0     1.008    1.925015   -0.097675   -6.357031

--------------------------------
INTERNAL COORDINATES (ANGSTROEM)
--------------------------------
 H      0   0   0     0.000000000000     0.00000000     0.00000000
 O      1   0   0     0.959582070928     0.00000000     0.00000000
 H      2   1   0     0.959837789160   106.56974280     0.00000000

---------------------------
INTERNAL COORDINATES (A.U.)
---------------------------
 H      0   0   0     0.000000000000     0.00000000     0.00000000
 O      1   0   0     1.813347317075     0.00000000     0.00000000
 H      2   1   0     1.813830554501   106.56974280     0.00000000

------------------------------------------------------------------------------
                   ___                                                        
                  /   \      - P O W E R E D   B Y -                         
                 /     \                                                     
                 |  |  |   _    _      __       _____    __    __             
                 |  |  |  | |  | |    /  \     |  _  \  |  |  /  |          
                  \  \/   | |  | |   /    \    | | | |  |  | /  /          
                 / \  \   | |__| |  /  /\  \   | |_| |  |  |/  /          
                |  |  |   |  __  | /  /__\  \  |    /   |      \           
                |  |  |   | |  | | |   __   |  |    \   |  |\   \          
                \     /   | |  | | |  |  |  |  | |\  \  |  | \   \       
                 \___/    |_|  |_| |__|  |__|  |_| \__\ |__|  \__/        
                                                                              
                      - O R C A' S   B I G   F R I E N D -                    
                                      &                                       
                       - I N T E G R A L  F E E D E R -                       
                                                                              
 v1 FN, 2020, v2 2021                                                         
------------------------------------------------------------------------------


Reading SHARK input file h20.SHARKINP.tmp ... ok
----------------------
SHARK INTEGRAL PACKAGE
----------------------

Number of atoms                             ...      3
Number of basis functions                   ...     30
Number of shells                            ...     16
Maximum angular momentum                    ...      2
Integral batch strategy                     ... SHARK/LIBINT Hybrid
RI-J (if used) integral strategy            ... SPLIT-RIJ (Revised 2003 algorithm where possible)
Printlevel                                  ...      1
Contraction scheme used                     ... SEGMENTED contraction
Coulomb Range Separation                    ... NOT USED
Exchange Range Separation                   ... NOT USED
Finite Nucleus Model                        ... NOT USED
Auxiliary Coulomb fitting basis             ... AVAILABLE
   # of basis functions in Aux-J            ...     42
   # of shells in Aux-J                     ...     20
   Maximum angular momentum in Aux-J        ...      2
Auxiliary J/K fitting basis                 ... NOT available
Auxiliary Correlation fitting basis         ... NOT available
Auxiliary 'external' fitting basis          ... NOT available
Integral threshold                          ...     2.500000e-11
Primitive cut-off                           ...     2.500000e-12
Primitive pair pre-selection threshold      ...     2.500000e-12

Calculating pre-screening integrals         ... done (  0.0 sec) Dimension = 16
Organizing shell pair data                  ... done (  0.0 sec)
Shell pair information
Total number of shell pairs                 ...       136
Shell pairs after pre-screening             ...       136
Total number of primitive shell pairs       ...       463
Primitive shell pairs kept                  ...       442
          la=0 lb=0:     66 shell pairs
          la=1 lb=0:     33 shell pairs
          la=1 lb=1:      6 shell pairs
          la=2 lb=0:     22 shell pairs
          la=2 lb=1:      6 shell pairs
          la=2 lb=2:      3 shell pairs

Calculating one electron integrals          ... done (  0.0 sec)
Calculating RI/J V-Matrix + Cholesky decomp.... done (  0.0 sec)
Calculating Nuclear repulsion               ... done (  0.0 sec) ENN=      9.166211032801 Eh

SHARK setup successfully completed in   0.2 seconds

Maximum memory used throughout the entire GTOINT-calculation: 7.5 MB

Diagonalization of the overlap matrix:
Smallest eigenvalue                        ... 8.754e-03
Time for diagonalization                   ...    0.000 sec
Threshold for overlap eigenvalues          ... 1.000e-08
Number of eigenvalues below threshold      ... 0
Time for construction of square roots      ...    0.004 sec
Total time needed                          ...    0.005 sec

-------------------
DFT GRID GENERATION
-------------------

General Integration Accuracy     IntAcc      ... 4.388
Radial Grid Type                 RadialGrid  ... OptM3 with GC (2021)
Angular Grid (max. ang.)         AngularGrid ... 4 (Lebedev-302)
Angular grid pruning method      GridPruning ... 4 (adaptive)
Weight generation scheme         WeightScheme... Becke
Basis function cutoff            BFCut       ... 1.0000e-11
Integration weight cutoff        WCut        ... 1.0000e-14
Angular grids for H and He will be reduced by one unit
Partially contracted basis set               ... off
Rotationally invariant grid construction     ... off

Total number of grid points                  ...    13071
Total number of batches                      ...      206
Average number of points per batch           ...       63
Average number of grid points per atom       ...     4357
Time for grid setup =    0.078 sec

--------------
SCF ITERATIONS
--------------
ITER       Energy         Delta-E        Max-DP      RMS-DP      [F,P]     Damp
               ***  Starting incremental Fock matrix formation  ***
  0    -76.3915192180   0.000000000000 0.00130653  0.00019596  0.0082602 0.7000
                      *** Initiating the SOSCF procedure ***
                      *** Re-Reading the Fockian *** 
                      *** Removing any level shift *** 
ITER      Energy       Delta-E        Grad      Rot      Max-DP    RMS-DP
  1    -76.39159731  -0.0000780883  0.000991  0.000991  0.003096  0.000480
               *** Restarting incremental Fock matrix formation ***
  2    -76.39171626  -0.0001189503  0.002121  0.003133  0.004568  0.000400
  3    -76.39167431   0.0000419440  0.003383  0.001743  0.002675  0.000262
  4    -76.39174036  -0.0000660474  0.000369  0.000239  0.000176  0.000027
  5    -76.39174065  -0.0000002877  0.000204  0.000085  0.000067  0.000010
                  ***Gradient check signals convergence***
              ***Rediagonalizing the Fockian in SOSCF/NRSCF***

               *****************************************************
               *                     SUCCESS                       *
               *           SCF CONVERGED AFTER   6 CYCLES          *
               *****************************************************

Total Energy       :          -76.39174078 Eh           -2078.72495 eV
  Last Energy change         ...   -1.3607e-07  Tolerance :   1.0000e-08
  Last MAX-Density change    ...    2.4332e-06  Tolerance :   1.0000e-07
             **** THE GBW FILE WAS UPDATED (h20.gbw) ****
             **** DENSITY h20.scfp WAS UPDATED ****
             **** ENERGY FILE WAS UPDATED (h20.en.tmp) ****
             **** THE GBW FILE WAS UPDATED (h20.gbw) ****
             **** DENSITY h20.scfp WAS UPDATED ****
Total SCF time: 0 days 0 hours 0 min 0 sec 

Maximum memory used throughout the entire SCF-calculation: 6.1 MB


-------------------------------------------------------------------------------
                          DFT DISPERSION CORRECTION                            
                                                                               
                              DFTD3 V3.1  Rev 1                                
                          USING Becke-Johnson damping                          
-------------------------------------------------------------------------------
-------------------------   ----------------
Dispersion correction           -0.000846889
-------------------------   ----------------

------------------   -----------------
SRB correction            -0.005576707
------------------   -----------------

-------------------------   --------------------
FINAL SINGLE POINT ENERGY       -76.398164379736
-------------------------   --------------------

------------------------------------------------------------------------------
                         ORCA SCF GRADIENT CALCULATION
------------------------------------------------------------------------------

Gradient of the Kohn-Sham DFT energy:
Kohn-Sham wavefunction type      ... RKS
Hartree-Fock exchange scaling    ...    0.000
Number of operators              ...    1
Number of atoms                  ...    3
Basis set dimensions             ...   30
Integral neglect threshold       ... 2.5e-11
Integral primitive cutoff        ... 2.5e-12
SHARK Integral package           ... ON

Nuc. rep. gradient       (SHARK) ... done (  0.0 sec)
HCore & Overlap gradient (SHARK) ... done (  0.0 sec)
RI-J gradient            (SHARK) ... done (  0.1 sec)
Exchange-correlation gradient    ... done
Dispersion correction            ... done
SRB correction                   ... done

------------------
CARTESIAN GRADIENT
------------------

   1   H   :   -0.000283299   -0.004215955    0.002029268
   2   O   :   -0.001942580    0.007875860   -0.003724043
   3   H   :    0.002225879   -0.003659906    0.001694776

Difference to translation invariance:
           :    0.0000000000   -0.0000000000   -0.0000000000

Difference to rotation invariance:
           :    0.0000126786   -0.0000128121   -0.0000129213

Norm of the cartesian gradient     ...    0.0110844690
RMS gradient                       ...    0.0036948230
MAX gradient                       ...    0.0078758600

-------
TIMINGS
-------

Total SCF gradient time            ...        0.327 sec

One electron gradient       ....       0.004 sec  (  1.1%)
RI-J Coulomb gradient       ....       0.063 sec  ( 19.2%)
XC gradient                 ....       0.162 sec  ( 49.5%)

Maximum memory used throughout the entire SCFGRAD-calculation: 24.8 MB
------------------------------------------------------------------------------
                         ORCA GEOMETRY RELAXATION STEP
------------------------------------------------------------------------------

Reading the OPT-File                    .... done
Getting information on internals        .... done
Copying old internal coords+grads       .... done
Making the new internal coordinates     .... (new redundants).... done
Validating the new internal coordinates .... (new redundants).... done
Calculating the B-matrix                .... done
Calculating the G,G- and P matrices     .... done
Transforming gradient to internals      .... done
Projecting the internal gradient        .... done
Number of atoms                         ....   3
Number of internal coordinates          ....   3
Current Energy                          ....   -76.398164380 Eh
Current gradient norm                   ....     0.011084469 Eh/bohr
Maximum allowed component of the step   ....  0.300
Current trust radius                    ....  0.300
Updating the Hessian (BFGS)             .... done
Forming the augmented Hessian           .... done
Diagonalizing the augmented Hessian     .... done
Last element of RFO vector              ....  0.999302824
Lowest eigenvalues of augmented Hessian:
 -0.000298344  0.206773931  0.495422392
Length of the computed step             ....  0.037360548
The final length of the internal step   ....  0.037360548
Converting the step to cartesian space:
 Initial RMS(Int)=    0.0215701223
Transforming coordinates:
 Iter   0:  RMS(Cart)=    0.0118234475 RMS(Int)=    0.0215665663
 Iter   1:  RMS(Cart)=    0.0001346895 RMS(Int)=    0.0002579668
 Iter   2:  RMS(Cart)=    0.0000019859 RMS(Int)=    0.0000037572
 Iter   3:  RMS(Cart)=    0.0000000478 RMS(Int)=    0.0000000896
done
Storing new coordinates                 .... done

                                .--------------------.
          ----------------------|Geometry convergence|-------------------------
          Item                value                   Tolerance       Converged
          ---------------------------------------------------------------------
          Energy change      -0.0011614955            0.0000050000      NO
          RMS gradient        0.0047465597            0.0001000000      NO
          MAX gradient        0.0078893321            0.0003000000      NO
          RMS step            0.0215701223            0.0020000000      NO
          MAX step            0.0373170431            0.0040000000      NO
          ........................................................
          Max(Bonds)      0.0008      Max(Angles)    2.14
          Max(Dihed)        0.00      Max(Improp)    0.00
          ---------------------------------------------------------------------

The optimization has not yet converged - more geometry cycles are needed


    ---------------------------------------------------------------------------
                         Redundant Internal Coordinates
                            (Angstroem and degrees)

        Definition                    Value    dE/dq     Step     New-Value
    ----------------------------------------------------------------------------
     1. B(O   1,H   0)                0.9596 -0.001758  0.0005    0.9601   
     2. B(H   2,O   1)                0.9598 -0.001502  0.0008    0.9607   
     3. A(H   0,O   1,H   2)          106.57  0.007889   -2.14    104.43   
    ----------------------------------------------------------------------------

         *************************************************************
         *                GEOMETRY OPTIMIZATION CYCLE   3            *
         *************************************************************
---------------------------------
CARTESIAN COORDINATES (ANGSTROEM)
---------------------------------
  H     -0.480617   -0.298954   -3.200970
  O      0.377938   -0.695903   -3.036541
  H      1.007652   -0.049005   -3.364951

----------------------------
CARTESIAN COORDINATES (A.U.)
----------------------------
  NO LB      ZA    FRAG     MASS         X           Y           Z
   0 H     1.0000    0     1.008   -0.908235   -0.564942   -6.048956
   1 O     8.0000    0    15.999    0.714200   -1.315065   -5.738231
   2 H     1.0000    0     1.008    1.904186   -0.092605   -6.358837

--------------------------------
INTERNAL COORDINATES (ANGSTROEM)
--------------------------------
 H      0   0   0     0.000000000000     0.00000000     0.00000000
 O      1   0   0     0.960063643405     0.00000000     0.00000000
 H      2   1   0     0.960661107076   104.43163385     0.00000000

---------------------------
INTERNAL COORDINATES (A.U.)
---------------------------
 H      0   0   0     0.000000000000     0.00000000     0.00000000
 O      1   0   0     1.814257357170     0.00000000     0.00000000
 H      2   1   0     1.815386399884   104.43163385     0.00000000

------------------------------------------------------------------------------
                   ___                                                        
                  /   \      - P O W E R E D   B Y -                         
                 /     \                                                     
                 |  |  |   _    _      __       _____    __    __             
                 |  |  |  | |  | |    /  \     |  _  \  |  |  /  |          
                  \  \/   | |  | |   /    \    | | | |  |  | /  /          
                 / \  \   | |__| |  /  /\  \   | |_| |  |  |/  /          
                |  |  |   |  __  | /  /__\  \  |    /   |      \           
                |  |  |   | |  | | |   __   |  |    \   |  |\   \          
                \     /   | |  | | |  |  |  |  | |\  \  |  | \   \       
                 \___/    |_|  |_| |__|  |__|  |_| \__\ |__|  \__/        
                                                                              
                      - O R C A' S   B I G   F R I E N D -                    
                                      &                                       
                       - I N T E G R A L  F E E D E R -                       
                                                                              
 v1 FN, 2020, v2 2021                                                         
------------------------------------------------------------------------------


Reading SHARK input file h20.SHARKINP.tmp ... ok
----------------------
SHARK INTEGRAL PACKAGE
----------------------

Number of atoms                             ...      3
Number of basis functions                   ...     30
Number of shells                            ...     16
Maximum angular momentum                    ...      2
Integral batch strategy                     ... SHARK/LIBINT Hybrid
RI-J (if used) integral strategy            ... SPLIT-RIJ (Revised 2003 algorithm where possible)
Printlevel                                  ...      1
Contraction scheme used                     ... SEGMENTED contraction
Coulomb Range Separation                    ... NOT USED
Exchange Range Separation                   ... NOT USED
Finite Nucleus Model                        ... NOT USED
Auxiliary Coulomb fitting basis             ... AVAILABLE
   # of basis functions in Aux-J            ...     42
   # of shells in Aux-J                     ...     20
   Maximum angular momentum in Aux-J        ...      2
Auxiliary J/K fitting basis                 ... NOT available
Auxiliary Correlation fitting basis         ... NOT available
Auxiliary 'external' fitting basis          ... NOT available
Integral threshold                          ...     2.500000e-11
Primitive cut-off                           ...     2.500000e-12
Primitive pair pre-selection threshold      ...     2.500000e-12

Calculating pre-screening integrals         ... done (  0.0 sec) Dimension = 16
Organizing shell pair data                  ... done (  0.0 sec)
Shell pair information
Total number of shell pairs                 ...       136
Shell pairs after pre-screening             ...       136
Total number of primitive shell pairs       ...       463
Primitive shell pairs kept                  ...       442
          la=0 lb=0:     66 shell pairs
          la=1 lb=0:     33 shell pairs
          la=1 lb=1:      6 shell pairs
          la=2 lb=0:     22 shell pairs
          la=2 lb=1:      6 shell pairs
          la=2 lb=2:      3 shell pairs

Calculating one electron integrals          ... done (  0.0 sec)
Calculating RI/J V-Matrix + Cholesky decomp.... done (  0.0 sec)
Calculating Nuclear repulsion               ... done (  0.0 sec) ENN=      9.164895744112 Eh

SHARK setup successfully completed in   0.1 seconds

Maximum memory used throughout the entire GTOINT-calculation: 7.5 MB

Diagonalization of the overlap matrix:
Smallest eigenvalue                        ... 8.684e-03
Time for diagonalization                   ...    0.000 sec
Threshold for overlap eigenvalues          ... 1.000e-08
Number of eigenvalues below threshold      ... 0
Time for construction of square roots      ...    0.020 sec
Total time needed                          ...    0.021 sec

-------------------
DFT GRID GENERATION
-------------------

General Integration Accuracy     IntAcc      ... 4.388
Radial Grid Type                 RadialGrid  ... OptM3 with GC (2021)
Angular Grid (max. ang.)         AngularGrid ... 4 (Lebedev-302)
Angular grid pruning method      GridPruning ... 4 (adaptive)
Weight generation scheme         WeightScheme... Becke
Basis function cutoff            BFCut       ... 1.0000e-11
Integration weight cutoff        WCut        ... 1.0000e-14
Angular grids for H and He will be reduced by one unit
Partially contracted basis set               ... off
Rotationally invariant grid construction     ... off

Total number of grid points                  ...    13073
Total number of batches                      ...      206
Average number of points per batch           ...       63
Average number of grid points per atom       ...     4358
Time for grid setup =    0.079 sec

--------------
SCF ITERATIONS
--------------
ITER       Energy         Delta-E        Max-DP      RMS-DP      [F,P]     Damp
               ***  Starting incremental Fock matrix formation  ***
                      *** Initiating the SOSCF procedure ***
                      *** Re-Reading the Fockian *** 
                      *** Removing any level shift *** 
ITER      Energy       Delta-E        Grad      Rot      Max-DP    RMS-DP
  0    -76.39188177 -76.3918817675  0.002996  0.002996  0.001383  0.000213
               *** Restarting incremental Fock matrix formation ***
  1    -76.39193020  -0.0000484297  0.000501  0.000662  0.001049  0.000110
  2    -76.39193104  -0.0000008431  0.000498  0.000412  0.000467  0.000056
  3    -76.39193241  -0.0000013708  0.000155  0.000202  0.000177  0.000031
  4    -76.39193266  -0.0000002458  0.000098  0.000055  0.000045  0.000007
  5    -76.39193269  -0.0000000345  0.000013  0.000010  0.000009  0.000001
                 **** Energy Check signals convergence ****
              ***Rediagonalizing the Fockian in SOSCF/NRSCF***

               *****************************************************
               *                     SUCCESS                       *
               *           SCF CONVERGED AFTER   6 CYCLES          *
               *****************************************************

Total Energy       :          -76.39193269 Eh           -2078.73017 eV
  Last Energy change         ...   -6.8290e-10  Tolerance :   1.0000e-08
  Last MAX-Density change    ...    1.8201e-06  Tolerance :   1.0000e-07
             **** THE GBW FILE WAS UPDATED (h20.gbw) ****
             **** DENSITY h20.scfp WAS UPDATED ****
             **** ENERGY FILE WAS UPDATED (h20.en.tmp) ****
             **** THE GBW FILE WAS UPDATED (h20.gbw) ****
             **** DENSITY h20.scfp WAS UPDATED ****
Total SCF time: 0 days 0 hours 0 min 0 sec 

Maximum memory used throughout the entire SCF-calculation: 6.1 MB


-------------------------------------------------------------------------------
                          DFT DISPERSION CORRECTION                            
                                                                               
                              DFTD3 V3.1  Rev 1                                
                          USING Becke-Johnson damping                          
-------------------------------------------------------------------------------
-------------------------   ----------------
Dispersion correction           -0.000847178
-------------------------   ----------------

------------------   -----------------
SRB correction            -0.005567111
------------------   -----------------

-------------------------   --------------------
FINAL SINGLE POINT ENERGY       -76.398346980911
-------------------------   --------------------

------------------------------------------------------------------------------
                         ORCA SCF GRADIENT CALCULATION
------------------------------------------------------------------------------

Gradient of the Kohn-Sham DFT energy:
Kohn-Sham wavefunction type      ... RKS
Hartree-Fock exchange scaling    ...    0.000
Number of operators              ...    1
Number of atoms                  ...    3
Basis set dimensions             ...   30
Integral neglect threshold       ... 2.5e-11
Integral primitive cutoff        ... 2.5e-12
SHARK Integral package           ... ON

Nuc. rep. gradient       (SHARK) ... done (  0.0 sec)
HCore & Overlap gradient (SHARK) ... done (  0.0 sec)
RI-J gradient            (SHARK) ... done (  0.1 sec)
Exchange-correlation gradient    ... done
Dispersion correction            ... done
SRB correction                   ... done

------------------
CARTESIAN GRADIENT
------------------

   1   H   :    0.001791810   -0.001717549    0.000773363
   2   O   :   -0.001253796    0.003494967   -0.001648966
   3   H   :   -0.000538014   -0.001777419    0.000875603

Difference to translation invariance:
           :    0.0000000000   -0.0000000000   -0.0000000000

Difference to rotation invariance:
           :    0.0000137451   -0.0000100900   -0.0000148700

Norm of the cartesian gradient     ...    0.0052421268
RMS gradient                       ...    0.0017473756
MAX gradient                       ...    0.0034949672

-------
TIMINGS
-------

Total SCF gradient time            ...        0.332 sec

One electron gradient       ....       0.004 sec  (  1.1%)
RI-J Coulomb gradient       ....       0.062 sec  ( 18.8%)
XC gradient                 ....       0.160 sec  ( 48.3%)

Maximum memory used throughout the entire SCFGRAD-calculation: 24.8 MB
------------------------------------------------------------------------------
                         ORCA GEOMETRY RELAXATION STEP
------------------------------------------------------------------------------

Reading the OPT-File                    .... done
Getting information on internals        .... done
Copying old internal coords+grads       .... done
Making the new internal coordinates     .... (new redundants).... done
Validating the new internal coordinates .... (new redundants).... done
Calculating the B-matrix                .... done
Calculating the G,G- and P matrices     .... done
Transforming gradient to internals      .... done
Projecting the internal gradient        .... done
Number of atoms                         ....   3
Number of internal coordinates          ....   3
Current Energy                          ....   -76.398346981 Eh
Current gradient norm                   ....     0.005242127 Eh/bohr
Maximum allowed component of the step   ....  0.300
Current trust radius                    ....  0.300
Updating the Hessian (BFGS)             .... done
Forming the augmented Hessian           .... done
Diagonalizing the augmented Hessian     .... done
Last element of RFO vector              ....  0.999919607
Lowest eigenvalues of augmented Hessian:
 -0.000036592  0.165213811  0.495425912
Length of the computed step             ....  0.012680870
The final length of the internal step   ....  0.012680870
Converting the step to cartesian space:
 Initial RMS(Int)=    0.0073213036
Transforming coordinates:
 Iter   0:  RMS(Cart)=    0.0031767722 RMS(Int)=    0.0073189414
 Iter   1:  RMS(Cart)=    0.0000173123 RMS(Int)=    0.0000273839
 Iter   2:  RMS(Cart)=    0.0000000482 RMS(Int)=    0.0000001254
done
Storing new coordinates                 .... done

                                .--------------------.
          ----------------------|Geometry convergence|-------------------------
          Item                value                   Tolerance       Converged
          ---------------------------------------------------------------------
          Energy change      -0.0001826012            0.0000050000      NO
          RMS gradient        0.0019997315            0.0001000000      NO
          MAX gradient        0.0024470156            0.0003000000      NO
          RMS step            0.0073213036            0.0020000000      NO
          MAX step            0.0111234724            0.0040000000      NO
          ........................................................
          Max(Bonds)      0.0025      Max(Angles)    0.64
          Max(Dihed)        0.00      Max(Improp)    0.00
          ---------------------------------------------------------------------

The optimization has not yet converged - more geometry cycles are needed


    ---------------------------------------------------------------------------
                         Redundant Internal Coordinates
                            (Angstroem and degrees)

        Definition                    Value    dE/dq     Step     New-Value
    ----------------------------------------------------------------------------
     1. B(O   1,H   0)                0.9601 -0.002447  0.0025    0.9626   
     2. B(H   2,O   1)                0.9607 -0.001847  0.0020    0.9627   
     3. A(H   0,O   1,H   2)          104.43  0.001612   -0.64    103.79   
    ----------------------------------------------------------------------------

         *************************************************************
         *                GEOMETRY OPTIMIZATION CYCLE   4            *
         *************************************************************
---------------------------------
CARTESIAN COORDINATES (ANGSTROEM)
---------------------------------
  H     -0.479613   -0.296999   -3.201935
  O      0.378851   -0.699188   -3.034995
  H      1.005735   -0.047675   -3.365531

----------------------------
CARTESIAN COORDINATES (A.U.)
----------------------------
  NO LB      ZA    FRAG     MASS         X           Y           Z
   0 H     1.0000    0     1.008   -0.906338   -0.561247   -6.050781
   1 O     8.0000    0    15.999    0.715925   -1.321274   -5.735310
   2 H     1.0000    0     1.008    1.900564   -0.090092   -6.359932

--------------------------------
INTERNAL COORDINATES (ANGSTROEM)
--------------------------------
 H      0   0   0     0.000000000000     0.00000000     0.00000000
 O      1   0   0     0.962593654824     0.00000000     0.00000000
 H      2   1   0     0.962656222761   103.79430577     0.00000000

---------------------------
INTERNAL COORDINATES (A.U.)
---------------------------
 H      0   0   0     0.000000000000     0.00000000     0.00000000
 O      1   0   0     1.819038385868     0.00000000     0.00000000
 H      2   1   0     1.819156622133   103.79430577     0.00000000

------------------------------------------------------------------------------
                   ___                                                        
                  /   \      - P O W E R E D   B Y -                         
                 /     \                                                     
                 |  |  |   _    _      __       _____    __    __             
                 |  |  |  | |  | |    /  \     |  _  \  |  |  /  |          
                  \  \/   | |  | |   /    \    | | | |  |  | /  /          
                 / \  \   | |__| |  /  /\  \   | |_| |  |  |/  /          
                |  |  |   |  __  | /  /__\  \  |    /   |      \           
                |  |  |   | |  | | |   __   |  |    \   |  |\   \          
                \     /   | |  | | |  |  |  |  | |\  \  |  | \   \       
                 \___/    |_|  |_| |__|  |__|  |_| \__\ |__|  \__/        
                                                                              
                      - O R C A' S   B I G   F R I E N D -                    
                                      &                                       
                       - I N T E G R A L  F E E D E R -                       
                                                                              
 v1 FN, 2020, v2 2021                                                         
------------------------------------------------------------------------------


Reading SHARK input file h20.SHARKINP.tmp ... ok
----------------------
SHARK INTEGRAL PACKAGE
----------------------

Number of atoms                             ...      3
Number of basis functions                   ...     30
Number of shells                            ...     16
Maximum angular momentum                    ...      2
Integral batch strategy                     ... SHARK/LIBINT Hybrid
RI-J (if used) integral strategy            ... SPLIT-RIJ (Revised 2003 algorithm where possible)
Printlevel                                  ...      1
Contraction scheme used                     ... SEGMENTED contraction
Coulomb Range Separation                    ... NOT USED
Exchange Range Separation                   ... NOT USED
Finite Nucleus Model                        ... NOT USED
Auxiliary Coulomb fitting basis             ... AVAILABLE
   # of basis functions in Aux-J            ...     42
   # of shells in Aux-J                     ...     20
   Maximum angular momentum in Aux-J        ...      2
Auxiliary J/K fitting basis                 ... NOT available
Auxiliary Correlation fitting basis         ... NOT available
Auxiliary 'external' fitting basis          ... NOT available
Integral threshold                          ...     2.500000e-11
Primitive cut-off                           ...     2.500000e-12
Primitive pair pre-selection threshold      ...     2.500000e-12

Calculating pre-screening integrals         ... done (  0.0 sec) Dimension = 16
Organizing shell pair data                  ... done (  0.0 sec)
Shell pair information
Total number of shell pairs                 ...       136
Shell pairs after pre-screening             ...       136
Total number of primitive shell pairs       ...       463
Primitive shell pairs kept                  ...       442
          la=0 lb=0:     66 shell pairs
          la=1 lb=0:     33 shell pairs
          la=1 lb=1:      6 shell pairs
          la=2 lb=0:     22 shell pairs
          la=2 lb=1:      6 shell pairs
          la=2 lb=2:      3 shell pairs

Calculating one electron integrals          ... done (  0.0 sec)
Calculating RI/J V-Matrix + Cholesky decomp.... done (  0.0 sec)
Calculating Nuclear repulsion               ... done (  0.0 sec) ENN=      9.144865084318 Eh

SHARK setup successfully completed in   0.1 seconds

Maximum memory used throughout the entire GTOINT-calculation: 7.5 MB

Diagonalization of the overlap matrix:
Smallest eigenvalue                        ... 8.700e-03
Time for diagonalization                   ...    0.000 sec
Threshold for overlap eigenvalues          ... 1.000e-08
Number of eigenvalues below threshold      ... 0
Time for construction of square roots      ...    0.003 sec
Total time needed                          ...    0.004 sec

-------------------
DFT GRID GENERATION
-------------------

General Integration Accuracy     IntAcc      ... 4.388
Radial Grid Type                 RadialGrid  ... OptM3 with GC (2021)
Angular Grid (max. ang.)         AngularGrid ... 4 (Lebedev-302)
Angular grid pruning method      GridPruning ... 4 (adaptive)
Weight generation scheme         WeightScheme... Becke
Basis function cutoff            BFCut       ... 1.0000e-11
Integration weight cutoff        WCut        ... 1.0000e-14
Angular grids for H and He will be reduced by one unit
Partially contracted basis set               ... off
Rotationally invariant grid construction     ... off

Total number of grid points                  ...    13074
Total number of batches                      ...      206
Average number of points per batch           ...       63
Average number of grid points per atom       ...     4358
Time for grid setup =    0.079 sec

--------------
SCF ITERATIONS
--------------
ITER       Energy         Delta-E        Max-DP      RMS-DP      [F,P]     Damp
               ***  Starting incremental Fock matrix formation  ***
                      *** Initiating the SOSCF procedure ***
                      *** Re-Reading the Fockian *** 
                      *** Removing any level shift *** 
ITER      Energy       Delta-E        Grad      Rot      Max-DP    RMS-DP
  0    -76.39199889 -76.3919988931  0.001309  0.001309  0.000890  0.000107
               *** Restarting incremental Fock matrix formation ***
  1    -76.39200573  -0.0000068322  0.000575  0.000756  0.001216  0.000110
  2    -76.39200241   0.0000033192  0.000917  0.000501  0.000710  0.000072
  3    -76.39200756  -0.0000051574  0.000019  0.000034  0.000021  0.000003
                 **** Energy Check signals convergence ****
              ***Rediagonalizing the Fockian in SOSCF/NRSCF***

               *****************************************************
               *                     SUCCESS                       *
               *           SCF CONVERGED AFTER   4 CYCLES          *
               *****************************************************

Total Energy       :          -76.39200757 Eh           -2078.73221 eV
  Last Energy change         ...   -1.8092e-09  Tolerance :   1.0000e-08
  Last MAX-Density change    ...    3.2519e-06  Tolerance :   1.0000e-07
             **** THE GBW FILE WAS UPDATED (h20.gbw) ****
             **** DENSITY h20.scfp WAS UPDATED ****
             **** ENERGY FILE WAS UPDATED (h20.en.tmp) ****
             **** THE GBW FILE WAS UPDATED (h20.gbw) ****
             **** DENSITY h20.scfp WAS UPDATED ****
Total SCF time: 0 days 0 hours 0 min 0 sec 

Maximum memory used throughout the entire SCF-calculation: 6.1 MB


-------------------------------------------------------------------------------
                          DFT DISPERSION CORRECTION                            
                                                                               
                              DFTD3 V3.1  Rev 1                                
                          USING Becke-Johnson damping                          
-------------------------------------------------------------------------------
-------------------------   ----------------
Dispersion correction           -0.000847241
-------------------------   ----------------

------------------   -----------------
SRB correction            -0.005511387
------------------   -----------------

-------------------------   --------------------
FINAL SINGLE POINT ENERGY       -76.398366193377
-------------------------   --------------------

------------------------------------------------------------------------------
                         ORCA SCF GRADIENT CALCULATION
------------------------------------------------------------------------------

Gradient of the Kohn-Sham DFT energy:
Kohn-Sham wavefunction type      ... RKS
Hartree-Fock exchange scaling    ...    0.000
Number of operators              ...    1
Number of atoms                  ...    3
Basis set dimensions             ...   30
Integral neglect threshold       ... 2.5e-11
Integral primitive cutoff        ... 2.5e-12
SHARK Integral package           ... ON

Nuc. rep. gradient       (SHARK) ... done (  0.0 sec)
HCore & Overlap gradient (SHARK) ... done (  0.0 sec)
RI-J gradient            (SHARK) ... done (  0.1 sec)
Exchange-correlation gradient    ... done
Dispersion correction            ... done
SRB correction                   ... done

------------------
CARTESIAN GRADIENT
------------------

[...]
  26   0.0000       2.596451        70.6530 
  27   0.0000       3.234716        88.0211 
  28   0.0000       3.501738        95.2871 
  29   0.0000      42.926390      1168.0865 

                    ********************************
                    * MULLIKEN POPULATION ANALYSIS *
                    ********************************

-----------------------
MULLIKEN ATOMIC CHARGES
-----------------------
   0 H :    0.432269
   1 O :   -0.864534
   2 H :    0.432265
Sum of atomic charges:   -0.0000000

--------------------------------
MULLIKEN REDUCED ORBITAL CHARGES
--------------------------------
  0 H s       :     0.567731  s :     0.567731
  1 O s       :     3.883889  s :     3.883889
      pz      :     1.921856  p :     4.944157
      px      :     1.332400
      py      :     1.689902
      dz2     :     0.006614  d :     0.036488
      dxz     :     0.003175
      dyz     :     0.009432
      dx2y2   :     0.003416
      dxy     :     0.013851
  2 H s       :     0.567735  s :     0.567735


                     *******************************
                     * LOEWDIN POPULATION ANALYSIS *
                     *******************************

----------------------
LOEWDIN ATOMIC CHARGES
----------------------
   0 H :    0.357465
   1 O :   -0.714930
   2 H :    0.357465

-------------------------------
LOEWDIN REDUCED ORBITAL CHARGES
-------------------------------
  0 H s       :     0.642535  s :     0.642535
  1 O s       :     3.647674  s :     3.647674
      pz      :     1.927031  p :     5.015244
      px      :     1.376213
      py      :     1.712000
      dz2     :     0.007800  d :     0.052011
      dxz     :     0.005227
      dyz     :     0.010194
      dx2y2   :     0.005570
      dxy     :     0.023220
  2 H s       :     0.642535  s :     0.642535


                      *****************************
                      * MAYER POPULATION ANALYSIS *
                      *****************************

  NA   - Mulliken gross atomic population
  ZA   - Total nuclear charge
  QA   - Mulliken gross atomic charge
  VA   - Mayer's total valence
  BVA  - Mayer's bonded valence
  FA   - Mayer's free valence

  ATOM       NA         ZA         QA         VA         BVA        FA
  0 H      0.5677     1.0000     0.4323     0.7880     0.7880    -0.0000
  1 O      8.8645     8.0000    -0.8645     1.5786     1.5786     0.0000
  2 H      0.5677     1.0000     0.4323     0.7880     0.7880     0.0000

  Mayer bond orders larger than 0.100000
B(  0-H ,  1-O ) :   0.7893 B(  1-O ,  2-H ) :   0.7893 

-------
TIMINGS
-------

Total SCF time: 0 days 0 hours 0 min 0 sec 

Total time                  ....       0.614 sec
Sum of individual times     ....       0.504 sec  ( 82.1%)

Fock matrix formation       ....       0.401 sec  ( 65.3%)
  Split-RI-J                ....       0.034 sec  (  8.5% of F)
  XC integration            ....       0.331 sec  ( 82.7% of F)
    Basis function eval.    ....       0.086 sec  ( 25.8% of XC)
    Density eval.           ....       0.045 sec  ( 13.4% of XC)
    XC-Functional eval.     ....       0.110 sec  ( 33.2% of XC)
    XC-Potential eval.      ....       0.027 sec  (  8.2% of XC)
Diagonalization             ....       0.001 sec  (  0.2%)
Density matrix formation    ....       0.000 sec  (  0.0%)
Population analysis         ....       0.020 sec  (  3.3%)
Initial guess               ....       0.001 sec  (  0.2%)
Orbital Transformation      ....       0.000 sec  (  0.0%)
Orbital Orthonormalization  ....       0.000 sec  (  0.0%)
DIIS solution               ....       0.000 sec  (  0.0%)
SOSCF solution              ....       0.003 sec  (  0.5%)
Grid generation             ....       0.078 sec  ( 12.7%)

Maximum memory used throughout the entire SCF-calculation: 6.1 MB


-------------------------------------------------------------------------------
                          DFT DISPERSION CORRECTION                            
                                                                               
                              DFTD3 V3.1  Rev 1                                
                          USING Becke-Johnson damping                          
-------------------------------------------------------------------------------
The B97-3c composite method is recognized
Using three-body term ABC
Active option DFTDOPT                   ...         4   

molecular C6(AA) [au] = 44.533815 


            DFT-D V3
 parameters
 s6 scaling factor         :     1.0000 
 a1 scaling factor         :     0.3700 
 s8 scaling factor         :     1.5000 
 a2 scaling factor         :     4.1000 
 Damping factor alpha9(ATM):    16.0000 
 ad hoc parameters k1-k3   :    16.0000     1.3333    -4.0000 

 Edisp/kcal,au: -0.531649335410  -0.000847237055 
 E6   /kcal   :  -0.307843467 
 E8   /kcal   :  -0.223806024 
 E6(ABC)      :   0.000000156 
 % E8         :  42.096549271 
 % E6(ABC)    :  -0.000029328 

-------------------------   ----------------
Dispersion correction           -0.000847237
-------------------------   ----------------

------------------   -----------------
SRB correction            -0.005503979
------------------   -----------------

-------------------------   --------------------
FINAL SINGLE POINT ENERGY       -76.398366369633
-------------------------   --------------------

                                *** OPTIMIZATION RUN DONE ***

                            ***************************************
                            *     ORCA property calculations      *
                            ***************************************

                                    ---------------------
                                    Active property flags
                                    ---------------------
   (+) Dipole Moment


------------------------------------------------------------------------------
                       ORCA ELECTRIC PROPERTIES CALCULATION
------------------------------------------------------------------------------

Dipole Moment Calculation                       ... on
Quadrupole Moment Calculation                   ... off
Polarizability Calculation                      ... off
GBWName                                         ... h20.gbw
Electron density                                ... h20.scfp
The origin for moment calculation is the CENTER OF MASS  = ( 0.691496, -1.209978 -5.787856)

-------------
DIPOLE MOMENT
-------------
                                X             Y             Z
Electronic contribution:      0.05205      -0.23676       0.11178
Nuclear contribution   :     -0.19285       0.87725      -0.41417
                        -----------------------------------------
Total Dipole Moment    :     -0.14080       0.64048      -0.30238
                        -----------------------------------------
Magnitude (a.u.)       :      0.72214
Magnitude (Debye)      :      1.83553



--------------------
Rotational spectrum 
--------------------
 
Rotational constants in cm-1:    26.672445    14.562849     9.419765 
Rotational constants in MHz : 799619.780727 436583.240210 282397.461334 

 Dipole components along the rotational axes: 
x,y,z [a.u.] :     0.000009     0.722137     0.000001 
x,y,z [Debye]:     0.000022     1.835527     0.000003 

 

-------------------------------------------------------------------------------
                               ORCA SCF HESSIAN
-------------------------------------------------------------------------------

Hessian of the Kohn-Sham DFT energy:
Kohn-Sham wavefunction type                      ... RKS
Hartree-Fock exchange scaling                    ...    0.000
Number of operators                              ...    1
Number of atoms                                  ...    3
Basis set dimensions                             ...   30
Integral neglect threshold                       ... 2.5e-11
Integral primitive cutoff                        ... 2.5e-12

Setting up DFT Hessian calculations              ... 

HESS GRID
---------

General Integration Accuracy     IntAcc      ... 4.629
Radial Grid Type                 RadialGrid  ... OptM3 with GC (2021)
Angular Grid (max. ang.)         AngularGrid ... 5 (Lebedev-434)
Angular grid pruning method      GridPruning ... 4 (adaptive)
Weight generation scheme         WeightScheme... Becke
Basis function cutoff            BFCut       ... 1.0000e-11
Integration weight cutoff        WCut        ... 1.0000e-14
Angular grids for H and He will be reduced by one unit
Partially contracted basis set               ... off
Rotationally invariant grid construction     ... off

Total number of grid points                  ...    20374
Total number of batches                      ...      320
Average number of points per batch           ...       63
Average number of grid points per atom       ...     6791

Building densities                               ... done   (      0.0 sec)
Calculating rho(r) on the grid                   ... done   (      0.1 sec)
Building xc-kernel on the grid                   ... done   (      0.3 sec)
                                                     done   (      0.7 sec)

Nuclear repulsion Hessian  (SHARK)               ... done   (      0.0 sec)

----------------------------------------------
Forming right-hand sides of CP-SCF equations     ...
----------------------------------------------
One electron integral derivatives  (SHARK)       ... done   (      0.1 sec)
Transforming the overlap derivative matrices     ... done   (      0.0 sec)
Making the Q(x) pseudodensities                  ... done   (      0.0 sec)
Adding the E*S(x)*S(y) terms to the Hessian      ... done   (      0.0 sec)
Calculating energy weighted overlap derivatives  ... done   (      0.0 sec)
Two electron integral derivatives (SHARK-RI)     ... done   (      1.1 sec)
Exchange-correlation integral derivatives        ... done   (      0.9 sec)
tr(F(y)Q(x)) contribution to the Hessian         ... done   (      0.0 sec)
Response fock operator R(S(x)) (SHARK-RI)        ... done   (      0.3 sec)
XC Response fock operator R(S(x))                ... done   (      0.2 sec)
tr(F(y)S(x)) contribution to the Hessian         ... done   (      0.0 sec)
Transforming and finalizing RHSs                 ... done   (      0.0 sec)

----------------------------------------------
Solving the CP-SCF equations (RI)                ...
----------------------------------------------
     CP-SCF ITERATION   0:   3.5954e-01 (   0.0 sec   0/  9 done)
     CP-SCF ITERATION   1:   1.4737e-02 (   0.0 sec   0/  9 done)
     CP-SCF ITERATION   2:   2.7028e-03 (   0.0 sec   0/  9 done)
     CP-SCF ITERATION   3:   3.7052e-04 (   0.0 sec   0/  9 done)
     CP-SCF ITERATION   4:   5.3706e-05 (   0.0 sec   9/  9 done)
                    *** THE CP-SCF HAS CONVERGED ***

                                                 ... done   (      0.2 sec)
Forming perturbed density Hessian contributions  ... done   (      0.0 sec)
2nd integral derivative contribs (SHARK-RI)      ... done   (      0.5 sec)
Exchange-correlation Hessian                     ... done   (      1.3 sec)
Dispersion correction in the Hessian             ... done   (      0.4 sec)
SRB correction in the Hessian                    ... done   (      0.0 sec)
Dipole derivatives                               ... done   (      0.2 sec)

Total SCF Hessian time: 0 days 0 hours 0 min 6 sec 

Writing the Hessian file to the disk             ... done


Maximum memory used throughout the entire SCFHESS-calculation: 53.3 MB

-----------------------
VIBRATIONAL FREQUENCIES
-----------------------

Scaling factor for frequencies =  1.000000000  (already applied!)

   0:         0.00 cm**-1
   1:         0.00 cm**-1
   2:         0.00 cm**-1
   3:         0.00 cm**-1
   4:         0.00 cm**-1
   5:         0.00 cm**-1
   6:      1711.76 cm**-1
   7:      3737.37 cm**-1
   8:      3849.17 cm**-1


------------
NORMAL MODES
------------

These modes are the Cartesian displacements weighted by the diagonal matrix
M(i,i)=1/sqrt(m[i]) where m[i] is the mass of the displaced atom
Thus, these vectors are normalized but *not* orthogonal

                  0          1          2          3          4          5    
      0       0.000000   0.000000   0.000000   0.000000   0.000000   0.000000
      1       0.000000   0.000000   0.000000   0.000000   0.000000   0.000000
      2       0.000000   0.000000   0.000000   0.000000   0.000000   0.000000
      3       0.000000   0.000000   0.000000   0.000000   0.000000   0.000000
      4       0.000000   0.000000   0.000000   0.000000   0.000000   0.000000
      5       0.000000   0.000000   0.000000   0.000000   0.000000   0.000000
      6       0.000000   0.000000   0.000000   0.000000   0.000000   0.000000
      7       0.000000   0.000000   0.000000   0.000000   0.000000   0.000000
      8       0.000000   0.000000   0.000000   0.000000   0.000000   0.000000
                  6          7          8    
      0      -0.308797  -0.649804  -0.630390
      1      -0.568363   0.253349   0.295229
      2       0.281257  -0.101911  -0.122536
      3      -0.013796   0.009569   0.068598
      4       0.062775  -0.044160   0.011417
      5      -0.029637   0.020853  -0.007509
      6       0.527760   0.497926  -0.458395
      7      -0.428001   0.447555  -0.476435
      8       0.189148  -0.229065   0.241711


-----------
IR SPECTRUM
-----------

 Mode   freq       eps      Int      T**2         TX        TY        TZ
       cm**-1   L/(mol*cm) km/mol    a.u.
----------------------------------------------------------------------------
  6:   1711.76   0.014742   74.50  0.002688  ( 0.010110 -0.045978  0.021713)
  7:   3737.37   0.000042    0.21  0.000004  (-0.000312  0.001641 -0.000859)
  8:   3849.17   0.007004   35.40  0.000568  (-0.023377 -0.003859  0.002550)

* The epsilon (eps) is given for a Dirac delta lineshape.
** The dipole moment derivative (T) already includes vibrational overlap.

The first frequency considered to be a vibration is 6
The total number of vibrations considered is 3


--------------------------
THERMOCHEMISTRY AT 298.15K
--------------------------

Temperature         ... 298.15 K
Pressure            ... 1.00 atm
Total Mass          ... 18.02 AMU

Throughout the following assumptions are being made:
  (1) The electronic state is orbitally nondegenerate
  (2) There are no thermally accessible electronically excited states
  (3) Hindered rotations indicated by low frequency modes are not
      treated as such but are treated as vibrations and this may
      cause some error
  (4) All equations used are the standard statistical mechanics
      equations for an ideal gas
  (5) All vibrations are strictly harmonic

freq.    1711.76  E(vib)   ...       0.00 
freq.    3737.37  E(vib)   ...       0.00 
freq.    3849.17  E(vib)   ...       0.00 

------------
INNER ENERGY
------------

The inner energy is: U= E(el) + E(ZPE) + E(vib) + E(rot) + E(trans)
    E(el)   - is the total energy from the electronic structure calculation
              = E(kin-el) + E(nuc-el) + E(el-el) + E(nuc-nuc)
    E(ZPE)  - the the zero temperature vibrational energy from the frequency calculation
    E(vib)  - the the finite temperature correction to E(ZPE) due to population
              of excited vibrational states
    E(rot)  - is the rotational thermal energy
    E(trans)- is the translational thermal energy

Summary of contributions to the inner energy U:
Electronic energy                ...    -76.39836637 Eh
Zero point energy                ...      0.02118309 Eh      13.29 kcal/mol
Thermal vibrational correction   ...      0.00000202 Eh       0.00 kcal/mol
Thermal rotational correction    ...      0.00141627 Eh       0.89 kcal/mol
Thermal translational correction ...      0.00141627 Eh       0.89 kcal/mol
-----------------------------------------------------------------------
Total thermal energy                    -76.37434872 Eh


Summary of corrections to the electronic energy:
(perhaps to be used in another calculation)
Total thermal correction                  0.00283456 Eh       1.78 kcal/mol
Non-thermal (ZPE) correction              0.02118309 Eh      13.29 kcal/mol
-----------------------------------------------------------------------
Total correction                          0.02401765 Eh      15.07 kcal/mol


--------
ENTHALPY
--------

The enthalpy is H = U + kB*T
                kB is Boltzmann's constant
Total free energy                 ...    -76.37434872 Eh 
Thermal Enthalpy correction       ...      0.00094421 Eh       0.59 kcal/mol
-----------------------------------------------------------------------
Total Enthalpy                    ...    -76.37340451 Eh


Note: Rotational entropy computed according to Herzberg 
Infrared and Raman Spectra, Chapter V,1, Van Nostrand Reinhold, 1945 
Point Group:  C2v, Symmetry Number:   2  
Rotational constants in cm-1:    26.672445    14.562849     9.419765 

Vibrational entropy computed according to the QRRHO of S. Grimme
Chem.Eur.J. 2012 18 9955


-------
ENTROPY
-------

The entropy contributions are T*S = T*(S(el)+S(vib)+S(rot)+S(trans))
     S(el)   - electronic entropy
     S(vib)  - vibrational entropy
     S(rot)  - rotational entropy
     S(trans)- translational entropy
The entropies will be listed as multiplied by the temperature to get
units of energy

Electronic entropy                ...      0.00000000 Eh      0.00 kcal/mol
Vibrational entropy               ...      0.00000226 Eh      0.00 kcal/mol
Rotational entropy                ...      0.00498289 Eh      3.13 kcal/mol
Translational entropy             ...      0.01644380 Eh     10.32 kcal/mol
-----------------------------------------------------------------------
Final entropy term                ...      0.02142896 Eh     13.45 kcal/mol

In case the symmetry of your molecule has not been determined correctly
or in case you have a reason to use a different symmetry number we print 
out the resulting rotational entropy values for sn=1,12 :
 --------------------------------------------------------
|  sn= 1 | S(rot)=       0.00563735 Eh      3.54 kcal/mol|
|  sn= 2 | S(rot)=       0.00498289 Eh      3.13 kcal/mol|
|  sn= 3 | S(rot)=       0.00460006 Eh      2.89 kcal/mol|
|  sn= 4 | S(rot)=       0.00432844 Eh      2.72 kcal/mol|
|  sn= 5 | S(rot)=       0.00411775 Eh      2.58 kcal/mol|
|  sn= 6 | S(rot)=       0.00394560 Eh      2.48 kcal/mol|
|  sn= 7 | S(rot)=       0.00380006 Eh      2.38 kcal/mol|
|  sn= 8 | S(rot)=       0.00367398 Eh      2.31 kcal/mol|
|  sn= 9 | S(rot)=       0.00356277 Eh      2.24 kcal/mol|
|  sn=10 | S(rot)=       0.00346329 Eh      2.17 kcal/mol|
|  sn=11 | S(rot)=       0.00337330 Eh      2.12 kcal/mol|
|  sn=12 | S(rot)=       0.00329115 Eh      2.07 kcal/mol|
 --------------------------------------------------------


-------------------
GIBBS FREE ENERGY
-------------------

The Gibbs free energy is G = H - T*S

Total enthalpy                    ...    -76.37340451 Eh 
Total entropy correction          ...     -0.02142896 Eh    -13.45 kcal/mol
-----------------------------------------------------------------------
Final Gibbs free energy         ...    -76.39483346 Eh

For completeness - the Gibbs free energy minus the electronic energy
G-E(el)                           ...      0.00353291 Eh      2.22 kcal/mol


Timings for individual modules:

Sum of individual times         ...       19.814 sec (=   0.330 min)
GTO integral calculation        ...        1.603 sec (=   0.027 min)   8.1 %
SCF iterations                  ...        6.098 sec (=   0.102 min)  30.8 %
SCF Gradient evaluation         ...        3.550 sec (=   0.059 min)  17.9 %
Geometry relaxation             ...        0.959 sec (=   0.016 min)   4.8 %
Analytical frequency calculation...        7.603 sec (=   0.127 min)  38.4 %
                             ****ORCA TERMINATED NORMALLY****
TOTAL RUN TIME: 0 days 0 hours 0 minutes 22 seconds 861 msec
