 Entering Gaussian System, Link 0=g16
 Input=NH3_def46.com
 Output=NH3_def46.log
 Initial command:
 /home/spantaleone/g16/l1.exe "/scratch/cnt0027/pag0797/spantaleone/tino/NH3_def/46/NH3_def/Gau-674.inp" -scrdir="/scratch/cnt0027/pag0797/spantaleone/tino/NH3_def/46/NH3_def/"
 Entering Link 1 = /home/spantaleone/g16/l1.exe PID=       675.
  
 Copyright (c) 1988-2017, Gaussian, Inc.  All Rights Reserved.
  
 This is part of the Gaussian(R) 16 program.  It is based on
 the Gaussian(R) 09 system (copyright 2009, Gaussian, Inc.),
 the Gaussian(R) 03 system (copyright 2003, Gaussian, Inc.),
 the Gaussian(R) 98 system (copyright 1998, Gaussian, Inc.),
 the Gaussian(R) 94 system (copyright 1995, Gaussian, Inc.),
 the Gaussian 92(TM) system (copyright 1992, Gaussian, Inc.),
 the Gaussian 90(TM) system (copyright 1990, Gaussian, Inc.),
 the Gaussian 88(TM) system (copyright 1988, Gaussian, Inc.),
 the Gaussian 86(TM) system (copyright 1986, Carnegie Mellon
 University), and the Gaussian 82(TM) system (copyright 1983,
 Carnegie Mellon University). Gaussian is a federally registered
 trademark of Gaussian, Inc.
  
 This software contains proprietary and confidential information,
 including trade secrets, belonging to Gaussian, Inc.
  
 This software is provided under written license and may be
 used, copied, transmitted, or stored only in accord with that
 written license.
  
 The following legend is applicable only to US Government
 contracts under FAR:
  
                    RESTRICTED RIGHTS LEGEND
  
 Use, reproduction and disclosure by the US Government is
 subject to restrictions as set forth in subparagraphs (a)
 and (c) of the Commercial Computer Software - Restricted
 Rights clause in FAR 52.227-19.
  
 Gaussian, Inc.
 340 Quinnipiac St., Bldg. 40, Wallingford CT 06492
  
  
 ---------------------------------------------------------------
 Warning -- This program may not be used in any manner that
 competes with the business of Gaussian, Inc. or will provide
 assistance to any competitor of Gaussian, Inc.  The licensee
 of this program is prohibited from giving any competitor of
 Gaussian, Inc. access to this program.  By using this program,
 the user acknowledges that Gaussian, Inc. is engaged in the
 business of creating and licensing software in the field of
 computational chemistry and represents and warrants to the
 licensee that it is not a competitor of Gaussian, Inc. and that
 it will not use this program in any manner prohibited above.
 ---------------------------------------------------------------
  

 Cite this work as:
 Gaussian 16, Revision B.01,
 M. J. Frisch, G. W. Trucks, H. B. Schlegel, G. E. Scuseria, 
 M. A. Robb, J. R. Cheeseman, G. Scalmani, V. Barone, 
 G. A. Petersson, H. Nakatsuji, X. Li, M. Caricato, A. V. Marenich, 
 J. Bloino, B. G. Janesko, R. Gomperts, B. Mennucci, H. P. Hratchian, 
 J. V. Ortiz, A. F. Izmaylov, J. L. Sonnenberg, D. Williams-Young, 
 F. Ding, F. Lipparini, F. Egidi, J. Goings, B. Peng, A. Petrone, 
 T. Henderson, D. Ranasinghe, V. G. Zakrzewski, J. Gao, N. Rega, 
 G. Zheng, W. Liang, M. Hada, M. Ehara, K. Toyota, R. Fukuda, 
 J. Hasegawa, M. Ishida, T. Nakajima, Y. Honda, O. Kitao, H. Nakai, 
 T. Vreven, K. Throssell, J. A. Montgomery, Jr., J. E. Peralta, 
 F. Ogliaro, M. J. Bearpark, J. J. Heyd, E. N. Brothers, K. N. Kudin, 
 V. N. Staroverov, T. A. Keith, R. Kobayashi, J. Normand, 
 K. Raghavachari, A. P. Rendell, J. C. Burant, S. S. Iyengar, 
 J. Tomasi, M. Cossi, J. M. Millam, M. Klene, C. Adamo, R. Cammi, 
 J. W. Ochterski, R. L. Martin, K. Morokuma, O. Farkas, 
 J. B. Foresman, and D. J. Fox, Gaussian, Inc., Wallingford CT, 2016.
 
 ******************************************
 Gaussian 16:  ES64L-G16RevB.01 20-Dec-2017
                 8-Feb-2021 
 ******************************************
 %nosave
 %nproc=4
 Will use up to    4 processors via shared memory.
 %mem=1gb
 %chk=input
 --------------------
 #P B97D3/aug-cc-pvtz
 --------------------
 1/38=1,172=1/1;
 2/12=2,17=6,18=5,40=1/2;
 3/5=16,6=1,7=10,11=2,25=1,30=1,74=-59/1,2,3;
 4//1;
 5/5=2,38=5/2;
 6/7=2,8=2,9=2,10=2,28=1/1;
 99/5=1,9=1/99;
 Leave Link    1 at Mon Feb  8 14:52:19 2021, MaxMem=   134217728 cpu:               0.2 elap:               0.0
 (Enter /home/spantaleone/g16/l101.exe)
 -----
 Title
 -----
 Symbolic Z-matrix:
 Charge =  0 Multiplicity = 1
 N                     1.10511  -10.12456  -1.73135 
 H                     0.39318  -10.00359  -2.44701 
 H                     0.6815   -9.82178  -0.85433 
 H                     1.28522  -11.12088  -1.65133 
 
 ITRead=  0  0  0  0
 MicOpt= -1 -1 -1 -1
 NAtoms=      4 NQM=        4 NQMF=       0 NMMI=      0 NMMIF=      0
                NMic=       0 NMicF=      0.
                    Isotopes and Nuclear Properties:
 (Nuclear quadrupole moments (NQMom) in fm**2, nuclear magnetic moments (NMagM)
  in nuclear magnetons)

  Atom         1           2           3           4
 IAtWgt=          14           1           1           1
 AtmWgt=  14.0030740   1.0078250   1.0078250   1.0078250
 NucSpn=           2           1           1           1
 AtZEff=  -0.0000000  -0.0000000  -0.0000000  -0.0000000
 NQMom=    2.0440000   0.0000000   0.0000000   0.0000000
 NMagM=    0.4037610   2.7928460   2.7928460   2.7928460
 AtZNuc=   7.0000000   1.0000000   1.0000000   1.0000000
 Leave Link  101 at Mon Feb  8 14:52:19 2021, MaxMem=   134217728 cpu:               0.7 elap:               0.2
 (Enter /home/spantaleone/g16/l202.exe)
                          Input orientation:                          
 ---------------------------------------------------------------------
 Center     Atomic      Atomic             Coordinates (Angstroms)
 Number     Number       Type             X           Y           Z
 ---------------------------------------------------------------------
      1          7           0        1.105108  -10.124564   -1.731351
      2          1           0        0.393179  -10.003592   -2.447011
      3          1           0        0.681501   -9.821783   -0.854329
      4          1           0        1.285222  -11.120882   -1.651326
 ---------------------------------------------------------------------
                    Distance matrix (angstroms):
                    1          2          3          4
     1  N    0.000000
     2  H    1.016684   0.000000
     3  H    1.019945   1.628748   0.000000
     4  H    1.015625   1.636213   1.639311   0.000000
 Stoichiometry    H3N
 Framework group  C1[X(H3N)]
 Deg. of freedom     6
 Full point group                 C1      NOp   1
 Largest Abelian subgroup         C1      NOp   1
 Largest concise Abelian subgroup C1      NOp   1
                         Standard orientation:                         
 ---------------------------------------------------------------------
 Center     Atomic      Atomic             Coordinates (Angstroms)
 Number     Number       Type             X           Y           Z
 ---------------------------------------------------------------------
      1          7           0       -0.002116    0.000080   -0.113951
      2          1           0        0.354967    0.873502    0.264563
      3          1           0        0.592373   -0.737851    0.263313
      4          1           0       -0.932530   -0.136210    0.269780
 ---------------------------------------------------------------------
 Rotational constants (GHZ):         298.1350534         294.5300446         187.6315894
 Leave Link  202 at Mon Feb  8 14:52:19 2021, MaxMem=   134217728 cpu:               0.0 elap:               0.0
 (Enter /home/spantaleone/g16/l301.exe)
 Standard basis: Aug-CC-pVTZ (5D, 7F)
 Ernie: Thresh=  0.10000D-02 Tol=  0.10000D-05 Strict=F.
 Ernie:  3 primitive shells out of 63 were deleted.
 There are   130 symmetry adapted cartesian basis functions of A   symmetry.
 There are   115 symmetry adapted basis functions of A   symmetry.
   115 basis functions,   153 primitive gaussians,   130 cartesian basis functions
     5 alpha electrons        5 beta electrons
       nuclear repulsion energy        11.8936289273 Hartrees.
 IExCor= 3630 DFT=T Ex+Corr=B97D3 ExCW=0 ScaHFX=  0.000000
 ScaDFX=  1.000000  1.000000  1.000000  1.000000 ScalE2=  1.000000  1.000000
 IRadAn=      5 IRanWt=     -1 IRanGd=            0 ICorTp=0 IEmpDi=141
 NAtoms=    4 NActive=    4 NUniq=    4 SFac= 1.00D+00 NAtFMM=   60 NAOKFM=F Big=F
 Integral buffers will be    131072 words long.
 Raffenetti 2 integral format.
 Two-electron integral symmetry is turned on.
 R6Disp:  Grimme-D3(BJ) Dispersion energy=       -0.0026833423 Hartrees.
 Nuclear repulsion after empirical dispersion term =       11.8909455850 Hartrees.
 Leave Link  301 at Mon Feb  8 14:52:19 2021, MaxMem=   134217728 cpu:               0.3 elap:               0.1
 (Enter /home/spantaleone/g16/l302.exe)
 NPDir=0 NMtPBC=     1 NCelOv=     1 NCel=       1 NClECP=     1 NCelD=      1
         NCelK=      1 NCelE2=     1 NClLst=     1 CellRange=     0.0.
 One-electron integrals computed using PRISM.
 One-electron integral symmetry used in STVInt
 NBasis=   115 RedAO= T EigKep=  2.73D-04  NBF=   115
 NBsUse=   115 1.00D-06 EigRej= -1.00D+00 NBFU=   115
 Precomputing XC quadrature grid using
 IXCGrd= 4 IRadAn=           5 IRanWt=          -1 IRanGd=           0 AccXCQ= 0.00D+00.
 Generated NRdTot=       0 NPtTot=           0 NUsed=           0 NTot=          32
 NSgBfM=   130   130   130   130   130 MxSgAt=     4 MxSgA2=     4.
 Leave Link  302 at Mon Feb  8 14:52:20 2021, MaxMem=   134217728 cpu:               0.8 elap:               0.2
 (Enter /home/spantaleone/g16/l303.exe)
 DipDrv:  MaxL=1.
 Leave Link  303 at Mon Feb  8 14:52:20 2021, MaxMem=   134217728 cpu:               0.2 elap:               0.1
 (Enter /home/spantaleone/g16/l401.exe)
 ExpMin= 2.53D-02 ExpMax= 1.14D+04 ExpMxC= 3.89D+02 IAcc=3 IRadAn=         5 AccDes= 0.00D+00
 Harris functional with IExCor= 3630 and IRadAn=       5 diagonalized for initial guess.
 HarFok:  IExCor= 3630 AccDes= 0.00D+00 IRadAn=         5 IDoV= 1 UseB2=F ITyADJ=14
 ICtDFT=  3500011 ScaDFX=  1.000000  1.000000  1.000000  1.000000
 FoFCou: FMM=F IPFlag=           0 FMFlag=      100000 FMFlg1=           0
         NFxFlg=           0 DoJE=T BraDBF=F KetDBF=T FulRan=T
         wScrn=  0.000000 ICntrl=       500 IOpCl=  0 I1Cent=   200000004 NGrid=           0
         NMat0=    1 NMatS0=      1 NMatT0=    0 NMatD0=    1 NMtDS0=    0 NMtDT0=    0
 Petite list used in FoFCou.
 Harris En= -56.5997064024361    
 JPrj=0 DoOrth=F DoCkMO=F.
 Leave Link  401 at Mon Feb  8 14:52:20 2021, MaxMem=   134217728 cpu:               2.1 elap:               0.6
 (Enter /home/spantaleone/g16/l502.exe)
 Keep J ints in memory in canonical form, NReq=26070887.
 FoFCou: FMM=F IPFlag=           0 FMFlag=           0 FMFlg1=           0
         NFxFlg=           0 DoJE=F BraDBF=F KetDBF=F FulRan=T
         wScrn=  0.000000 ICntrl=       600 IOpCl=  0 I1Cent=           0 NGrid=           0
         NMat0=    1 NMatS0=   6670 NMatT0=    0 NMatD0=    1 NMtDS0=    0 NMtDT0=    0
 Symmetry not used in FoFCou.
 Two-electron integral symmetry not used.
 Closed shell SCF:
 Using DIIS extrapolation, IDIIS=  1040.
 NGot=   134217728 LenX=   111934145 LenY=   111916804
 Requested convergence on RMS density matrix=1.00D-08 within 128 cycles.
 Requested convergence on MAX density matrix=1.00D-06.
 Requested convergence on             energy=1.00D-06.
 No special actions if energy rises.

 Cycle   1  Pass 1  IDiag  1:
 E= -56.4708579469988    
 DIIS: error= 4.03D-02 at cycle   1 NSaved=   1.
 NSaved= 1 IEnMin= 1 EnMin= -56.4708579469988     IErMin= 1 ErrMin= 4.03D-02
 ErrMax= 4.03D-02  0.00D+00 EMaxC= 1.00D-01 BMatC= 1.02D-01 BMatP= 1.02D-01
 IDIUse=3 WtCom= 5.97D-01 WtEn= 4.03D-01
 Coeff-Com:  0.100D+01
 Coeff-En:   0.100D+01
 Coeff:      0.100D+01
 Gap=     0.051 Goal=   None    Shift=    0.000
 GapD=    0.051 DampG=0.500 DampE=0.500 DampFc=0.2500 IDamp=-1.
 Damping current iteration by 2.50D-01
 RMSDP=4.09D-03 MaxDP=9.44D-02              OVMax= 3.68D-01

 Cycle   2  Pass 1  IDiag  1:
 E= -56.5005887954228     Delta-E=       -0.029730848424 Rises=F Damp=T
 DIIS: error= 1.10D-02 at cycle   2 NSaved=   2.
 NSaved= 2 IEnMin= 2 EnMin= -56.5005887954228     IErMin= 2 ErrMin= 1.10D-02
 ErrMax= 1.10D-02  0.00D+00 EMaxC= 1.00D-01 BMatC= 9.17D-03 BMatP= 1.02D-01
 IDIUse=3 WtCom= 8.90D-01 WtEn= 1.10D-01
 Coeff-Com: -0.359D+00 0.136D+01
 Coeff-En:   0.267D-01 0.973D+00
 Coeff:     -0.316D+00 0.132D+01
 Gap=     0.183 Goal=   None    Shift=    0.000
 RMSDP=7.87D-04 MaxDP=3.44D-02 DE=-2.97D-02 OVMax= 2.73D-01

 Cycle   3  Pass 1  IDiag  1:
 E= -56.5552765167750     Delta-E=       -0.054687721352 Rises=F Damp=F
 DIIS: error= 7.56D-04 at cycle   3 NSaved=   3.
 NSaved= 3 IEnMin= 3 EnMin= -56.5552765167750     IErMin= 3 ErrMin= 7.56D-04
 ErrMax= 7.56D-04  0.00D+00 EMaxC= 1.00D-01 BMatC= 4.89D-05 BMatP= 9.17D-03
 IDIUse=3 WtCom= 9.92D-01 WtEn= 7.56D-03
 Coeff-Com: -0.112D-01 0.256D-01 0.986D+00
 Coeff-En:   0.000D+00 0.000D+00 0.100D+01
 Coeff:     -0.111D-01 0.254D-01 0.986D+00
 Gap=     0.201 Goal=   None    Shift=    0.000
 RMSDP=1.15D-04 MaxDP=2.11D-03 DE=-5.47D-02 OVMax= 5.83D-03

 Cycle   4  Pass 1  IDiag  1:
 E= -56.5553102386856     Delta-E=       -0.000033721911 Rises=F Damp=F
 DIIS: error= 5.74D-04 at cycle   4 NSaved=   4.
 NSaved= 4 IEnMin= 4 EnMin= -56.5553102386856     IErMin= 4 ErrMin= 5.74D-04
 ErrMax= 5.74D-04  0.00D+00 EMaxC= 1.00D-01 BMatC= 2.02D-05 BMatP= 4.89D-05
 IDIUse=3 WtCom= 9.94D-01 WtEn= 5.74D-03
 Coeff-Com:  0.126D-01-0.146D-01 0.221D+00 0.781D+00
 Coeff-En:   0.000D+00 0.000D+00 0.170D+00 0.830D+00
 Coeff:      0.125D-01-0.145D-01 0.221D+00 0.781D+00
 Gap=     0.203 Goal=   None    Shift=    0.000
 RMSDP=2.39D-05 MaxDP=7.68D-04 DE=-3.37D-05 OVMax= 1.89D-03

 Cycle   5  Pass 1  IDiag  1:
 E= -56.5553289164636     Delta-E=       -0.000018677778 Rises=F Damp=F
 DIIS: error= 1.33D-04 at cycle   5 NSaved=   5.
 NSaved= 5 IEnMin= 5 EnMin= -56.5553289164636     IErMin= 5 ErrMin= 1.33D-04
 ErrMax= 1.33D-04  0.00D+00 EMaxC= 1.00D-01 BMatC= 7.22D-07 BMatP= 2.02D-05
 IDIUse=3 WtCom= 9.99D-01 WtEn= 1.33D-03
 Coeff-Com:  0.597D-02-0.616D-02 0.434D-01 0.239D+00 0.718D+00
 Coeff-En:   0.000D+00 0.000D+00 0.000D+00 0.000D+00 0.100D+01
 Coeff:      0.596D-02-0.615D-02 0.434D-01 0.239D+00 0.718D+00
 Gap=     0.203 Goal=   None    Shift=    0.000
 RMSDP=4.99D-06 MaxDP=9.72D-05 DE=-1.87D-05 OVMax= 3.19D-04

 Cycle   6  Pass 1  IDiag  1:
 E= -56.5553295825099     Delta-E=       -0.000000666046 Rises=F Damp=F
 DIIS: error= 1.09D-05 at cycle   6 NSaved=   6.
 NSaved= 6 IEnMin= 6 EnMin= -56.5553295825099     IErMin= 6 ErrMin= 1.09D-05
 ErrMax= 1.09D-05  0.00D+00 EMaxC= 1.00D-01 BMatC= 6.95D-09 BMatP= 7.22D-07
 IDIUse=1 WtCom= 1.00D+00 WtEn= 0.00D+00
 Coeff-Com:  0.218D-03-0.207D-03 0.180D-02-0.549D-02-0.544D-02 0.101D+01
 Coeff:      0.218D-03-0.207D-03 0.180D-02-0.549D-02-0.544D-02 0.101D+01
 Gap=     0.203 Goal=   None    Shift=    0.000
 RMSDP=7.15D-07 MaxDP=1.26D-05 DE=-6.66D-07 OVMax= 3.73D-05

 Cycle   7  Pass 1  IDiag  1:
 E= -56.5553295891519     Delta-E=       -0.000000006642 Rises=F Damp=F
 DIIS: error= 8.07D-07 at cycle   7 NSaved=   7.
 NSaved= 7 IEnMin= 7 EnMin= -56.5553295891519     IErMin= 7 ErrMin= 8.07D-07
 ErrMax= 8.07D-07  0.00D+00 EMaxC= 1.00D-01 BMatC= 5.18D-11 BMatP= 6.95D-09
 IDIUse=1 WtCom= 1.00D+00 WtEn= 0.00D+00
 Coeff-Com:  0.856D-05-0.634D-05 0.946D-04-0.298D-02-0.764D-02 0.208D+00
 Coeff-Com:  0.802D+00
 Coeff:      0.856D-05-0.634D-05 0.946D-04-0.298D-02-0.764D-02 0.208D+00
 Coeff:      0.802D+00
 Gap=     0.203 Goal=   None    Shift=    0.000
 RMSDP=5.49D-08 MaxDP=1.43D-06 DE=-6.64D-09 OVMax= 3.88D-06

 Cycle   8  Pass 1  IDiag  1:
 E= -56.5553295891989     Delta-E=       -0.000000000047 Rises=F Damp=F
 DIIS: error= 3.18D-07 at cycle   8 NSaved=   8.
 NSaved= 8 IEnMin= 8 EnMin= -56.5553295891989     IErMin= 8 ErrMin= 3.18D-07
 ErrMax= 3.18D-07  0.00D+00 EMaxC= 1.00D-01 BMatC= 5.92D-12 BMatP= 5.18D-11
 IDIUse=1 WtCom= 1.00D+00 WtEn= 0.00D+00
 Coeff-Com: -0.579D-05 0.458D-05-0.649D-04-0.141D-03-0.105D-02-0.183D-01
 Coeff-Com:  0.269D+00 0.751D+00
 Coeff:     -0.579D-05 0.458D-05-0.649D-04-0.141D-03-0.105D-02-0.183D-01
 Coeff:      0.269D+00 0.751D+00
 Gap=     0.203 Goal=   None    Shift=    0.000
 RMSDP=1.47D-08 MaxDP=4.72D-07 DE=-4.71D-11 OVMax= 1.04D-06

 Cycle   9  Pass 1  IDiag  1:
 E= -56.5553295892051     Delta-E=       -0.000000000006 Rises=F Damp=F
 DIIS: error= 1.37D-08 at cycle   9 NSaved=   9.
 NSaved= 9 IEnMin= 9 EnMin= -56.5553295892051     IErMin= 9 ErrMin= 1.37D-08
 ErrMax= 1.37D-08  0.00D+00 EMaxC= 1.00D-01 BMatC= 1.49D-14 BMatP= 5.92D-12
 IDIUse=1 WtCom= 1.00D+00 WtEn= 0.00D+00
 Coeff-Com: -0.892D-07-0.195D-06-0.198D-05 0.269D-04 0.339D-04-0.221D-02
 Coeff-Com:  0.201D-01 0.699D-01 0.912D+00
 Coeff:     -0.892D-07-0.195D-06-0.198D-05 0.269D-04 0.339D-04-0.221D-02
 Coeff:      0.201D-01 0.699D-01 0.912D+00
 Gap=     0.203 Goal=   None    Shift=    0.000
 RMSDP=1.29D-09 MaxDP=2.67D-08 DE=-6.20D-12 OVMax= 4.18D-08

 SCF Done:  E(RB97D3) =  -56.5553295892     A.U. after    9 cycles
            NFock=  9  Conv=0.13D-08     -V/T= 2.0063
 KE= 5.620245664223D+01 PE=-1.557885457387D+02 EE= 3.113981392221D+01
 Leave Link  502 at Mon Feb  8 14:52:24 2021, MaxMem=   134217728 cpu:              14.9 elap:               3.9
 (Enter /home/spantaleone/g16/l601.exe)
 Copying SCF densities to generalized density rwf, IOpCl= 0 IROHF=0.

 **********************************************************************

            Population analysis using the SCF Density.

 **********************************************************************

 Orbital symmetries:
       Occupied  (A) (A) (A) (A) (A)
       Virtual   (A) (A) (A) (A) (A) (A) (A) (A) (A) (A) (A) (A)
                 (A) (A) (A) (A) (A) (A) (A) (A) (A) (A) (A) (A)
                 (A) (A) (A) (A) (A) (A) (A) (A) (A) (A) (A) (A)
                 (A) (A) (A) (A) (A) (A) (A) (A) (A) (A) (A) (A)
                 (A) (A) (A) (A) (A) (A) (A) (A) (A) (A) (A) (A)
                 (A) (A) (A) (A) (A) (A) (A) (A) (A) (A) (A) (A)
                 (A) (A) (A) (A) (A) (A) (A) (A) (A) (A) (A) (A)
                 (A) (A) (A) (A) (A) (A) (A) (A) (A) (A) (A) (A)
                 (A) (A) (A) (A) (A) (A) (A) (A) (A) (A) (A) (A)
                 (A) (A)
 The electronic state is 1-A.
 Alpha  occ. eigenvalues --  -13.97760  -0.78014  -0.41716  -0.41413  -0.22686
 Alpha virt. eigenvalues --   -0.02403   0.02167   0.02182   0.06362   0.08397
 Alpha virt. eigenvalues --    0.11077   0.11117   0.11627   0.11707   0.15650
 Alpha virt. eigenvalues --    0.15711   0.16523   0.25951   0.28712   0.29557
 Alpha virt. eigenvalues --    0.29578   0.32139   0.32279   0.32282   0.38133
 Alpha virt. eigenvalues --    0.38166   0.43507   0.46557   0.46668   0.56735
 Alpha virt. eigenvalues --    0.61029   0.61201   0.64683   0.70824   0.76475
 Alpha virt. eigenvalues --    0.76545   0.76669   0.81762   0.81814   0.86940
 Alpha virt. eigenvalues --    0.88713   0.88780   0.94387   0.94852   0.94940
 Alpha virt. eigenvalues --    0.99093   0.99099   1.01940   1.05906   1.06155
 Alpha virt. eigenvalues --    1.11361   1.15947   1.16197   1.37996   1.50413
 Alpha virt. eigenvalues --    1.50573   1.51860   1.58796   1.60009   1.60107
 Alpha virt. eigenvalues --    1.73120   1.74432   1.74912   1.79458   1.79649
 Alpha virt. eigenvalues --    1.96062   2.08866   2.09195   2.09502   2.12955
 Alpha virt. eigenvalues --    2.13143   2.14547   2.98370   3.14747   3.14879
 Alpha virt. eigenvalues --    3.55372   3.58797   3.59107   3.76188   3.76334
 Alpha virt. eigenvalues --    3.78008   3.81876   3.82148   3.84381   3.92753
 Alpha virt. eigenvalues --    3.92971   3.93588   4.06953   4.09746   4.09985
 Alpha virt. eigenvalues --    4.24767   4.30835   4.31046   4.54915   4.55244
 Alpha virt. eigenvalues --    4.59566   4.59668   4.61802   4.61898   4.75554
 Alpha virt. eigenvalues --    5.13774   5.14457   5.24026   5.37638   5.38380
 Alpha virt. eigenvalues --    5.50158   5.80029   5.82033   5.91097   6.08934
 Alpha virt. eigenvalues --    6.39645   6.40636   7.11170   7.11905  16.13664
          Condensed to atoms (all electrons):
               1          2          3          4
     1  N    6.464414   0.309327   0.308830   0.309861
     2  H    0.309327   0.575994  -0.007498  -0.008173
     3  H    0.308830  -0.007498   0.574102  -0.007652
     4  H    0.309861  -0.008173  -0.007652   0.576103
 Mulliken charges:
               1
     1  N   -0.392432
     2  H    0.130351
     3  H    0.132219
     4  H    0.129862
 Sum of Mulliken charges =  -0.00000
 Mulliken charges with hydrogens summed into heavy atoms:
               1
     1  N   -0.000000
 Electronic spatial extent (au):  <R**2>=             27.1770
 Charge=             -0.0000 electrons
 Dipole moment (field-independent basis, Debye):
    X=              0.0163    Y=              0.0003    Z=              1.4552  Tot=              1.4552
 Quadrupole moment (field-independent basis, Debye-Ang):
   XX=             -6.3569   YY=             -6.4068   ZZ=             -9.4982
   XY=              0.0040   XZ=             -0.0098   YZ=              0.0022
 Traceless Quadrupole moment (field-independent basis, Debye-Ang):
   XX=              1.0637   YY=              1.0139   ZZ=             -2.0776
   XY=              0.0040   XZ=             -0.0098   YZ=              0.0022
 Octapole moment (field-independent basis, Debye-Ang**2):
  XXX=             -0.8197  YYY=              0.3888  ZZZ=              1.0828  XYY=              0.8414
  XXY=             -0.3892  XXZ=              0.7903  XZZ=             -0.0010  YZZ=              0.0020
  YYZ=              0.7743  XYZ=              0.0023
 Hexadecapole moment (field-independent basis, Debye-Ang**3):
 XXXX=            -10.8976 YYYY=            -10.9200 ZZZZ=            -13.9179 XXXY=              0.0007
 XXXZ=             -0.2987 YYYX=              0.0108 YYYZ=              0.1349 ZZZX=             -0.0161
 ZZZY=              0.0047 XXYY=             -3.6207 XXZZ=             -4.3223 YYZZ=             -4.3245
 XXYZ=             -0.1301 YYXZ=              0.2767 ZZXY=              0.0037
 N-N= 1.189094558504D+01 E-N=-1.557885450248D+02  KE= 5.620245664223D+01
 No NMR shielding tensors so no spin-rotation constants.
 Leave Link  601 at Mon Feb  8 14:52:25 2021, MaxMem=   134217728 cpu:               0.7 elap:               0.2
 (Enter /home/spantaleone/g16/l9999.exe)
 1\1\GINC-N1766\SP\RB97D3\Aug-CC-pVTZ\H3N1\SPANTALEONE\08-Feb-2021\0\\#
 P B97D3/aug-cc-pvtz\\Title\\0,1\N,0,1.105108,-10.124564,-1.731351\H,0,
 0.393179,-10.003592,-2.447011\H,0,0.681501,-9.821783,-0.854329\H,0,1.2
 85222,-11.120882,-1.651326\\Version=ES64L-G16RevB.01\State=1-A\HF=-56.
 5553296\RMSD=1.293e-09\Dipole=-0.4780364,-0.2912678,0.1201856\Quadrupo
 le=-0.8225485,0.1698667,0.6526818,-1.0010385,0.3990588,0.2505657\PG=C0
 1 [X(H3N1)]\\@


 THE 2ND LAW OF THERMODYNAMICS HAS THE SAME
 DEGREE OF TRUTH AS THE STATEMENT THAT IF YOU THROW
 A TUMBLERFULL OF WATER INTO THE SEA, YOU CANNOT GET
 THE SAME TUMBLERFULL OF WATER OUT AGAIN.
          - J.C. MAXWELL, LETTER TO LORD RAYLEIGH, DECEMBER 6,1870
 Job cpu time:       0 days  0 hours  0 minutes 20.2 seconds.
 Elapsed time:       0 days  0 hours  0 minutes  5.4 seconds.
 File lengths (MBytes):  RWF=     10 Int=      0 D2E=      0 Chk=      2 Scr=      1
 Normal termination of Gaussian 16 at Mon Feb  8 14:52:25 2021.
